
  ___ ___ ___ _ _ _  
 |   |   |_  | | | | 
 | | | | | . | | | | 
 |__ |  _|___|_____|  25.1.0
 |___|_|             

User:   georgios-vourvachakis@georgios-vourvachakis-82K2
Date:   Tue Apr 15 22:38:14 2025
Arch:   x86_64
Pid:    1263393
CWD:    /home/georgios-vourvachakis/Desktop/DFT_codes
Python: 3.12.3
gpaw:   /home/georgios-vourvachakis/Desktop/DFT_codes/.venv/lib/python3.12/site-packages/gpaw
_gpaw:  /home/georgios-vourvachakis/Desktop/DFT_codes/.venv/lib/python3.12/site-packages/
        _gpaw.cpython-312-x86_64-linux-gnu.so
ase:    /home/georgios-vourvachakis/Desktop/DFT_codes/.venv/lib/python3.12/site-packages/ase (version 3.24.0)
numpy:  /home/georgios-vourvachakis/Desktop/DFT_codes/.venv/lib/python3.12/site-packages/numpy (version 2.2.3)
scipy:  /home/georgios-vourvachakis/Desktop/DFT_codes/.venv/lib/python3.12/site-packages/scipy (version 1.15.1)
libxc:  5.2.3
units:  Angstrom and eV
cores: 1
OpenMP: False
OMP_NUM_THREADS: 1

Input parameters:
  convergence: {density: 0.01,
                energy: 0.001}
  kpts: {gamma: True,
         size: (5, 5, 1)}
  maxiter: 100
  mixer: {backend: pulay,
          beta: 0.05,
          method: separate,
          nmaxold: 3,
          weight: 100.0}
  mode: {ecut: 400.0,
         name: pw}
  occupations: {fixmagmom: False,
                name: fermi-dirac,
                width: 0.1}
  setups: {W: :d,2.5}
  spinpol: False
  symmetry: off
  xc: PBE

System changes: positions, numbers, cell, pbc, initial_charges, initial_magmoms 

Initialize ...

species:
  W:
    name: Tungsten
    id: 3ed563b7d19992259c4d7db283f2ff78
    Z: 74.0
    valence: 14
    core: 60
    charge: 0.0
    Hubbard: {U: 2.5,  # eV
              l: 2,
              scale: True}
    file: /home/georgios-vourvachakis/Desktop/DFT_codes/gpaw_datasets/gpaw-setups-0.9.20000/W.PBE.gz
    compensation charges: {type: gauss,
                           rc: 0.40,
                           lmax: 2}
    cutoffs: {filter: 2.36,
              core: 3.02}
    projectors:
      #              energy  rcut
      - 5s(2.00)   -78.830   1.344
      - 6s(2.00)    -5.697   1.344
      - 5p(6.00)   -43.233   1.355
      - 6p(0.00)    -1.367   1.355
      - 5d(4.00)    -4.494   1.228
      -  d          22.717   1.228
  
    # Using partial waves for W as LCAO basis

  Te:
    name: Tellurium
    id: e44b9ef4772d7e5a1c6a47e6d6496588
    Z: 52.0
    valence: 6
    core: 46
    charge: 0.0
    file: /home/georgios-vourvachakis/Desktop/DFT_codes/gpaw_datasets/gpaw-setups-0.9.20000/Te.PBE.gz
    compensation charges: {type: gauss,
                           rc: 0.36,
                           lmax: 2}
    cutoffs: {filter: 2.09,
              core: 3.17}
    projectors:
      #              energy  rcut
      - 5s(2.00)   -15.089   1.180
      - 5p(4.00)    -5.955   1.196
      -  s          12.123   1.180
      -  p          21.256   1.196
      -  d           0.000   1.238
  
    # Using partial waves for Te as LCAO basis

Reference energy: -1616706.077045  # eV

Spin-paired calculation

Convergence criteria:
 Maximum [total energy] change in last 3 cyles: 0.001 eV / valence electron
 Maximum integral of absolute [dens]ity change: 0.01 electrons / valence electron
 Maximum integral of absolute [eigenst]ate change: 4e-08 eV^2 / valence electron
 Maximum number of scf [iter]ations: 100
 (Square brackets indicate name in SCF output, whereas a 'c' in
 the SCF output indicates the quantity has converged.)

Symmetries present (total): 1

  ( 1  0  0)
  ( 0  1  0)
  ( 0  0  1)

25 k-points: 5 x 5 x 1 Monkhorst-Pack grid
25 k-points in the irreducible part of the Brillouin zone
       k-points in crystal coordinates                weights
   0:    -0.40000000   -0.40000000    0.00000000          1/25
   1:    -0.40000000   -0.20000000    0.00000000          1/25
   2:    -0.40000000    0.00000000    0.00000000          1/25
   3:    -0.40000000    0.20000000    0.00000000          1/25
   4:    -0.40000000    0.40000000    0.00000000          1/25
   5:    -0.20000000   -0.40000000    0.00000000          1/25
   6:    -0.20000000   -0.20000000    0.00000000          1/25
   7:    -0.20000000    0.00000000    0.00000000          1/25
   8:    -0.20000000    0.20000000    0.00000000          1/25
   9:    -0.20000000    0.40000000    0.00000000          1/25
          ...
  24:     0.40000000    0.40000000    0.00000000          1/25

Wave functions: Plane wave expansion
  Cutoff energy: 400.000 eV
  Number of coefficients (min, max): 34320, 34511
  Pulay-stress correction: 0.000000 eV/Ang^3 (de/decut=0.000000)
  Using Numpy's FFT
  ScaLapack parameters: grid=1x1, blocksize=None
  Wavefunction extrapolation:
    Improved wavefunction reuse through dual PAW basis 

Occupation numbers: Fermi-Dirac:
  width: 0.1000  # eV
 

Eigensolver
   Davidson(niter=2) 

Densities:
  Coarse grid: 35*30*200 grid
  Fine grid: 70*60*400 grid
  Total Charge: 0.000000 

Density mixing:
  Method: separate
  Backend: pulay
  Linear mixing parameter: 0.05
  old densities: 3
  Damping of long wavelength oscillations: 100 

Hamiltonian:
  XC and Coulomb potentials evaluated on a 70*60*400 grid
  Using the PBE Exchange-Correlation functional
  External potential:
    NoExternalPotential
 

XC parameters: PBE with 2 nearest neighbor stencil

Memory estimate:
  Process memory now: 241.79 MiB
  Calculator: 774.87 MiB
    Density: 97.01 MiB
      Arrays: 41.66 MiB
      Localized functions: 45.74 MiB
      Mixer: 9.61 MiB
    Hamiltonian: 28.35 MiB
      Arrays: 27.24 MiB
      XC: 0.00 MiB
      Poisson: 0.00 MiB
      vbar: 1.12 MiB
    Wavefunctions: 649.51 MiB
      Arrays psit_nG: 473.94 MiB
      Eigensolver: 21.79 MiB
      Projections: 1.21 MiB
      Projectors: 131.40 MiB
      PW-descriptor: 21.18 MiB

Total number of cores used: 1

Number of atoms: 6
Number of atomic orbitals: 42
Number of bands in calculation: 36
Number of valence electrons: 52
Bands to converge: occupied

... initialized

Initializing position-dependent things.

Density initialized from atomic densities
Creating initial wave functions:
  36 bands from LCAO basis set

     .----------------.  
    /|                |  
   / |                |  
  /  |                |  
 *   |                |  
 |   |                |  
 |   |                |  
 |   |                |  
 |   |                |  
 |   |                |  
 |   |                |  
 |   |                |  
 |   |                |  
 |   |                |  
 |   |                |  
 |   |                |  
 |   |                |  
 |   |                |  
 |   |                |  
 |   |                |  
 |   |                |  
 |   |                |  
 |   |                |  
 |   |                |  
 |   |                |  
 |   |                |  
 |   |                |  
 |   | Te       W     |  
 |   |                |  
 |   |                |  
 W   |  Te            |  
 |   |                |  
 |   Te       Te      |  
 |   |                |  
 |   |                |  
 |   |                |  
 |   |                |  
 |   |                |  
 |   |                |  
 |   |                |  
 |   |                |  
 |   |                |  
 |   |                |  
 |   |                |  
 |   |                |  
 |   |                |  
 |   |                |  
 |   |                |  
 |   |                |  
 |   |                |  
 |   |                |  
 |   |                |  
 |   |                |  
 |   .----------------.  
 |  /                /   
 | /                /    
 |/                /     
 *----------------*      

Positions:
   0 W      0.000000    0.000000   21.595000    ( 0.0000,  0.0000,  0.0000)
   1 Te     3.061600    0.000000   21.595000    ( 0.0000,  0.0000,  0.0000)
   2 Te     1.780000    3.083050   23.190000    ( 0.0000,  0.0000,  0.0000)
   3 W      5.340000    3.083050   23.190000    ( 0.0000,  0.0000,  0.0000)
   4 Te     1.780000    0.000000   20.000000    ( 0.0000,  0.0000,  0.0000)
   5 Te     5.340000    0.000000   20.000000    ( 0.0000,  0.0000,  0.0000)

Unit cell:
           periodic     x           y           z      points  spacing
  1. axis:    yes    7.120000    0.000000    0.000000    35     0.2034
  2. axis:    yes    0.000000    6.166101    0.000000    30     0.2055
  3. axis:    no     0.000000    0.000000   43.190000   200     0.2159

  Lengths:   7.120000   6.166101  43.190000
  Angles:   90.000000  90.000000  90.000000

Effective grid spacing dv^(1/3) = 0.2082

     iter     time        total  log10-change:
                         energy   eigst   dens
iter:   1 22:38:59   -10.963344
iter:   2 22:39:34   -10.352366   -1.01  -1.00
iter:   3 22:40:07   -10.170144   -1.74  -1.13
iter:   4 22:40:42    -9.929972   -2.00  -1.19
iter:   5 22:41:15    -9.870719   -1.99  -1.29
iter:   6 22:41:46    -9.913626   -2.19  -1.39
iter:   7 22:42:17    -9.985592   -2.68  -1.49
iter:   8 22:42:49   -10.041941   -3.17  -1.54
iter:   9 22:43:25   -10.001956   -3.60  -1.55
iter:  10 22:43:59   -10.023564c  -3.84  -1.54
iter:  11 22:44:29    -9.967581   -3.94  -1.55
iter:  12 22:45:00    -9.815935   -3.20  -1.55
iter:  13 22:45:39    -9.779677   -3.59  -1.57
iter:  14 22:46:12    -9.743066   -3.52  -1.58
iter:  15 22:46:45    -9.741856c  -4.21  -1.62
iter:  16 22:47:18    -9.767075c  -3.30  -1.65
iter:  17 22:47:53    -9.800379   -3.31  -1.77
iter:  18 22:48:23    -9.815057c  -3.83  -1.86
iter:  19 22:48:55    -9.825908c  -4.21  -1.89
iter:  20 22:49:29    -9.792904c  -3.94  -1.89
iter:  21 22:50:00    -9.800564c  -3.66  -1.91
iter:  22 22:50:33    -9.797193c  -4.00  -2.01c
iter:  23 22:51:04    -9.805519c  -4.46  -2.03c
iter:  24 22:51:37    -9.791024c  -4.78  -2.04c
iter:  25 22:52:09    -9.769150c  -4.35  -2.03c
iter:  26 22:52:46    -9.765895c  -4.80  -2.04c
iter:  27 22:53:26    -9.762545c  -4.89  -2.07c
iter:  28 22:54:07    -9.766019c  -5.20  -2.08c
iter:  29 22:54:39    -9.770452c  -5.53  -2.09c
iter:  30 22:55:14    -9.766167c  -5.69  -2.09c
iter:  31 22:55:45    -9.766565c  -6.12  -2.09c
iter:  32 22:56:20    -9.767102c  -6.58  -2.09c
iter:  33 22:56:55    -9.768361c  -6.37  -2.09c
iter:  34 22:57:27    -9.767699c  -6.25  -2.09c
iter:  35 22:57:59    -9.768663c  -6.00  -2.09c
iter:  36 22:58:38    -9.772439c  -5.85  -2.09c
iter:  37 22:59:16    -9.764574c  -5.44  -2.09c
iter:  38 22:59:50    -9.757236c  -5.05  -2.09c
iter:  39 23:00:23    -9.754536c  -5.43  -2.10c
iter:  40 23:01:04    -9.745392c  -4.93  -2.10c
iter:  41 23:02:14    -9.745778c  -5.43  -2.13c
iter:  42 23:02:47    -9.752362c  -4.82  -2.15c
iter:  43 23:03:20    -9.753727c  -5.34  -2.17c
iter:  44 23:03:54    -9.754678c  -5.97  -2.17c
iter:  45 23:04:25    -9.749756c  -5.57  -2.17c
iter:  46 23:04:54    -9.750304c  -5.60  -2.17c
iter:  47 23:05:30    -9.761805c  -3.92  -2.20c
iter:  48 23:06:01    -9.765049c  -4.41  -2.33c
iter:  49 23:06:31    -9.766712c  -4.82  -2.35c
iter:  50 23:07:01    -9.774694c  -4.19  -2.37c
iter:  51 23:07:30    -9.776560c  -4.64  -2.45c
iter:  52 23:08:14    -9.776740c  -5.21  -2.47c
iter:  53 23:08:48    -9.777635c  -5.34  -2.48c
iter:  54 23:09:29    -9.776447c  -5.85  -2.48c
iter:  55 23:10:03    -9.776607c  -5.98  -2.48c
iter:  56 23:10:34    -9.776602c  -5.91  -2.48c
iter:  57 23:11:06    -9.776983c  -5.49  -2.48c
iter:  58 23:11:38    -9.777857c  -5.63  -2.48c
iter:  59 23:12:10    -9.778210c  -6.13  -2.48c
iter:  60 23:12:56    -9.777596c  -6.08  -2.48c
iter:  61 23:13:28    -9.778579c  -5.26  -2.48c
iter:  62 23:14:00    -9.778543c  -5.93  -2.49c
iter:  63 23:14:30    -9.779210c  -5.72  -2.49c
iter:  64 23:15:00    -9.779821c  -5.74  -2.52c
iter:  65 23:15:49    -9.779238c  -6.46  -2.52c
iter:  66 23:16:35    -9.779241c  -6.71  -2.51c
iter:  67 23:17:17    -9.780205c  -6.17  -2.52c
iter:  68 23:17:48    -9.778608c  -5.54  -2.51c
iter:  69 23:18:20    -9.777840c  -6.02  -2.53c
iter:  70 23:19:19    -9.778077c  -6.53  -2.54c
iter:  71 23:20:28    -9.777991c  -7.29  -2.54c
iter:  72 23:21:00    -9.778222c  -6.51  -2.54c
iter:  73 23:21:31    -9.778279c  -7.47c -2.54c

Converged after 73 iterations.

Dipole moment: (0.299029, -0.000000, -0.236792) |e|*Ang

Energy contributions relative to reference atoms: (reference = -1616706.077045)

Kinetic:       +112.600616
Potential:      -99.325239
External:        +0.000000
XC:             -22.412754
Entropy (-ST):   -0.468356
Local:           -0.406724
SIC:             +0.000000
--------------------------
Free energy:    -10.012457
Extrapolated:    -9.778279

Showing only first 2 kpts
 Kpt  Band  Eigenvalues  Occupancy
  0    24     -3.46707    1.43088
  0    25     -3.32036    0.73395
  0    26     -3.28814    0.59159
  0    27     -3.11038    0.13259

  1    24     -3.55935    1.72700
  1    25     -3.33427    0.79969
  1    26     -3.25550    0.46515
  1    27     -3.12141    0.14693


Fermi level: -3.37488

No gap
No difference between direct/indirect transitions
Writing to wte2_1T'_initial.gpw (mode='')

Timing:                              incl.     excl.
-----------------------------------------------------------
Hamiltonian:                         0.454     0.006   0.0% |
 Atomic:                             0.102     0.001   0.0% |
  XC Correction:                     0.100     0.100   0.0% |
 Calculate atomic Hamiltonians:      0.041     0.041   0.0% |
 Communicate:                        0.000     0.000   0.0% |
 Initialize Hamiltonian:             0.001     0.001   0.0% |
 Poisson:                            0.005     0.005   0.0% |
 XC 3D grid:                         0.299     0.299   0.0% |
LCAO initialization:                13.323     0.049   0.0% |
 LCAO eigensolver:                   1.835     0.001   0.0% |
  Calculate projections:             0.002     0.002   0.0% |
  DenseAtomicCorrection:             0.017     0.017   0.0% |
  Distribute overlap matrix:         0.001     0.001   0.0% |
  Orbital Layouts:                   0.991     0.991   0.0% |
  Potential matrix:                  0.046     0.046   0.0% |
  Sum over cells:                    0.777     0.777   0.0% |
 LCAO to grid:                      11.306    11.306   0.1% |
 Set positions (LCAO WFS):           0.133     0.012   0.0% |
  Basic WFS set positions:           0.000     0.000   0.0% |
  Basis functions set positions:     0.000     0.000   0.0% |
  P tci:                             0.100     0.100   0.0% |
  ST tci:                            0.019     0.019   0.0% |
  mktci:                             0.002     0.002   0.0% |
PWDescriptor:                        0.129     0.129   0.0% |
SCF-cycle:                        2582.906     0.627   0.0% |
 Davidson:                        2335.007   370.578   1.7% ||
  Apply H:                         417.661   409.849   1.9% ||
   HMM T:                            7.812     7.812   0.0% |
  Subspace diag:                   482.366     0.181   0.0% |
   calc_h_matrix:                  441.088    19.259   0.1% |
    Apply H:                       421.829   414.069   1.9% ||
     HMM T:                          7.760     7.760   0.0% |
   diagonalize:                      0.525     0.525   0.0% |
   rotate_psi:                      40.572    40.572   0.2% |
  calc. matrices:                  917.898   114.160   0.5% |
   Apply H:                        803.738   788.031   3.6% ||
    HMM T:                          15.707    15.707   0.1% |
  diagonalize:                      66.710    66.710   0.3% |
  rotate_psi:                       79.794    79.794   0.4% |
 Density:                          213.181     0.001   0.0% |
  Atomic density matrices:           0.151     0.151   0.0% |
  Mix:                              14.227    14.227   0.1% |
  Multipole moments:                 0.007     0.007   0.0% |
  Pseudo density:                  198.796   198.795   0.9% |
   Symmetrize density:               0.001     0.001   0.0% |
 Hamiltonian:                       32.897     0.337   0.0% |
  Atomic:                            7.553     0.093   0.0% |
   XC Correction:                    7.460     7.460   0.0% |
  Calculate atomic Hamiltonians:     3.095     3.095   0.0% |
  Communicate:                       0.000     0.000   0.0% |
  Poisson:                           0.325     0.325   0.0% |
  XC 3D grid:                       21.586    21.586   0.1% |
 Orthonormalize:                     1.194     0.002   0.0% |
  calc_s_matrix:                     0.140     0.140   0.0% |
  inverse-cholesky:                  0.003     0.003   0.0% |
  projections:                       0.727     0.727   0.0% |
  rotate_psi_s:                      0.321     0.321   0.0% |
Set symmetry:                        0.000     0.000   0.0% |
Other:                           19511.132 19511.132  88.3% |----------------------------------|
-----------------------------------------------------------
Total:                                     22107.943 100.0%

Memory usage: 5.59 GiB
Date: Wed Apr 16 04:46:41 2025
