
  ___ ___ ___ _ _ _  
 |   |   |_  | | | | 
 | | | | | . | | | | 
 |__ |  _|___|_____|  25.1.0
 |___|_|             

User:   georgios-vourvachakis@georgios-vourvachakis-82K2
Date:   Thu Apr 17 14:47:41 2025
Arch:   x86_64
Pid:    338711
CWD:    /home/georgios-vourvachakis/Desktop/DFT_codes
Python: 3.12.3
gpaw:   /home/georgios-vourvachakis/Desktop/DFT_codes/.venv/lib/python3.12/site-packages/gpaw
_gpaw:  /home/georgios-vourvachakis/Desktop/DFT_codes/.venv/lib/python3.12/site-packages/
        _gpaw.cpython-312-x86_64-linux-gnu.so
ase:    /home/georgios-vourvachakis/Desktop/DFT_codes/.venv/lib/python3.12/site-packages/ase (version 3.24.0)
numpy:  /home/georgios-vourvachakis/Desktop/DFT_codes/.venv/lib/python3.12/site-packages/numpy (version 2.2.3)
scipy:  /home/georgios-vourvachakis/Desktop/DFT_codes/.venv/lib/python3.12/site-packages/scipy (version 1.15.1)
libxc:  5.2.3
units:  Angstrom and eV
cores: 1
OpenMP: False
OMP_NUM_THREADS: 1

Reading from wte2_1T'_intermediate.gpw
Read dipole, energy, free_energy, magmom, magmoms
Reading input parameters:
  convergence: {bands: occupied,
                density: 0.0005,
                eigenstates: 4e-08,
                energy: 0.0005}
  kpts: {gamma: True,
         size: [10, 10, 1]}
  maxiter: 100
  mixer: {backend: pulay,
          beta: 0.03,
          method: separate,
          nmaxold: 5,
          weight: None}
  mode: {ecut: 400.0,
         name: pw}
  nbands: 40
  occupations: {name: fermi-dirac,
                width: 0.2}
  spinpol: False
  symmetry: off
  xc: PBE

Initialize ...

species:
  W:
    name: Tungsten
    id: 3ed563b7d19992259c4d7db283f2ff78
    Z: 74.0
    valence: 14
    core: 60
    charge: 0.0
    file: /home/georgios-vourvachakis/Desktop/DFT_codes/gpaw_datasets/gpaw-setups-0.9.20000/W.PBE.gz
    compensation charges: {type: gauss,
                           rc: 0.40,
                           lmax: 2}
    cutoffs: {filter: 2.36,
              core: 3.02}
    projectors:
      #              energy  rcut
      - 5s(2.00)   -78.830   1.344
      - 6s(2.00)    -5.697   1.344
      - 5p(6.00)   -43.233   1.355
      - 6p(0.00)    -1.367   1.355
      - 5d(4.00)    -4.494   1.228
      -  d          22.717   1.228
  
    # Using partial waves for W as LCAO basis

  Te:
    name: Tellurium
    id: e44b9ef4772d7e5a1c6a47e6d6496588
    Z: 52.0
    valence: 6
    core: 46
    charge: 0.0
    file: /home/georgios-vourvachakis/Desktop/DFT_codes/gpaw_datasets/gpaw-setups-0.9.20000/Te.PBE.gz
    compensation charges: {type: gauss,
                           rc: 0.36,
                           lmax: 2}
    cutoffs: {filter: 2.09,
              core: 3.17}
    projectors:
      #              energy  rcut
      - 5s(2.00)   -15.089   1.180
      - 5p(4.00)    -5.955   1.196
      -  s          12.123   1.180
      -  p          21.256   1.196
      -  d           0.000   1.238
  
    # Using partial waves for Te as LCAO basis

Reference energy: -1616706.077045  # eV

Spin-paired calculation

Convergence criteria:
 Maximum [total energy] change in last 3 cyles: 0.0005 eV / valence electron
 Maximum integral of absolute [dens]ity change: 0.0005 electrons / valence electron
 Maximum integral of absolute [eigenst]ate change: 4e-08 eV^2 / valence electron
 Maximum number of scf [iter]ations: 100
 (Square brackets indicate name in SCF output, whereas a 'c' in
 the SCF output indicates the quantity has converged.)

Symmetries present (total): 1

  ( 1  0  0)
  ( 0  1  0)
  ( 0  0  1)

100 k-points: 10 x 10 x 1 Monkhorst-Pack grid + [1/20,1/20,0.000000]
100 k-points in the irreducible part of the Brillouin zone
       k-points in crystal coordinates                weights
   0:    -0.40000000   -0.40000000    0.00000000          1/100
   1:    -0.40000000   -0.30000000    0.00000000          1/100
   2:    -0.40000000   -0.20000000    0.00000000          1/100
   3:    -0.40000000   -0.10000000    0.00000000          1/100
   4:    -0.40000000    0.00000000    0.00000000          1/100
   5:    -0.40000000    0.10000000    0.00000000          1/100
   6:    -0.40000000    0.20000000    0.00000000          1/100
   7:    -0.40000000    0.30000000    0.00000000          1/100
   8:    -0.40000000    0.40000000    0.00000000          1/100
   9:    -0.40000000    0.50000000    0.00000000          1/100
          ...
  99:     0.50000000    0.50000000    0.00000000          1/100

Wave functions: Plane wave expansion
  Cutoff energy: 400.000 eV
  Number of coefficients (min, max): 34320, 34511
  Pulay-stress correction: 0.000000 eV/Ang^3 (de/decut=0.000000)
  Using Numpy's FFT
  ScaLapack parameters: grid=1x1, blocksize=None
  Wavefunction extrapolation:
    Improved wavefunction reuse through dual PAW basis 

Occupation numbers: Fermi-Dirac:
  width: 0.2000  # eV
 

Eigensolver
   Davidson(niter=2) 

Densities:
  Coarse grid: 35*30*200 grid
  Fine grid: 70*60*400 grid
  Total Charge: 0.000000 

Density mixing:
  Method: separate
  Backend: pulay
  Linear mixing parameter: 0.03
  old densities: 5
  Damping of long wavelength oscillations: 50 

Hamiltonian:
  XC and Coulomb potentials evaluated on a 70*60*400 grid
  Using the PBE Exchange-Correlation functional
  External potential:
    NoExternalPotential
 

XC parameters: PBE with 2 nearest neighbor stencil

Memory estimate:
  Process memory now: 294.25 MiB
  Calculator: 2853.74 MiB
    Density: 103.41 MiB
      Arrays: 41.66 MiB
      Localized functions: 45.74 MiB
      Mixer: 16.02 MiB
    Hamiltonian: 28.35 MiB
      Arrays: 27.24 MiB
      XC: 0.00 MiB
      Poisson: 0.00 MiB
      vbar: 1.12 MiB
    Wavefunctions: 2721.97 MiB
      Arrays psit_nG: 2106.38 MiB
      Eigensolver: 23.94 MiB
      Projections: 5.37 MiB
      Projectors: 525.60 MiB
      PW-descriptor: 60.67 MiB

Total number of cores used: 1

Number of atoms: 6
Number of atomic orbitals: 42
Number of bands in calculation: 40
Number of valence electrons: 52
Bands to converge: occupied

... initialized

Input parameters:
  convergence: {density: 0.0005,
                energy: 0.0001}
  kpts: {gamma: True,
         size: (15, 15, 1)}
  mixer: {backend: pulay,
          beta: 0.04,
          method: separate,
          nmaxold: 8,
          weight: 50.0}
  mode: {ecut: 400.0,
         name: pw}
  occupations: {fixmagmom: False,
                name: fermi-dirac,
                width: 0.02}

Initialize ...

species:
  W:
    name: Tungsten
    id: 3ed563b7d19992259c4d7db283f2ff78
    Z: 74.0
    valence: 14
    core: 60
    charge: 0.0
    file: /home/georgios-vourvachakis/Desktop/DFT_codes/gpaw_datasets/gpaw-setups-0.9.20000/W.PBE.gz
    compensation charges: {type: gauss,
                           rc: 0.40,
                           lmax: 2}
    cutoffs: {filter: 2.36,
              core: 3.02}
    projectors:
      #              energy  rcut
      - 5s(2.00)   -78.830   1.344
      - 6s(2.00)    -5.697   1.344
      - 5p(6.00)   -43.233   1.355
      - 6p(0.00)    -1.367   1.355
      - 5d(4.00)    -4.494   1.228
      -  d          22.717   1.228
  
    # Using partial waves for W as LCAO basis

  Te:
    name: Tellurium
    id: e44b9ef4772d7e5a1c6a47e6d6496588
    Z: 52.0
    valence: 6
    core: 46
    charge: 0.0
    file: /home/georgios-vourvachakis/Desktop/DFT_codes/gpaw_datasets/gpaw-setups-0.9.20000/Te.PBE.gz
    compensation charges: {type: gauss,
                           rc: 0.36,
                           lmax: 2}
    cutoffs: {filter: 2.09,
              core: 3.17}
    projectors:
      #              energy  rcut
      - 5s(2.00)   -15.089   1.180
      - 5p(4.00)    -5.955   1.196
      -  s          12.123   1.180
      -  p          21.256   1.196
      -  d           0.000   1.238
  
    # Using partial waves for Te as LCAO basis

Reference energy: -1616706.077045  # eV

Spin-paired calculation

Convergence criteria:
 Maximum [total energy] change in last 3 cyles: 0.0001 eV / valence electron
 Maximum integral of absolute [dens]ity change: 0.0005 electrons / valence electron
 Maximum integral of absolute [eigenst]ate change: 4e-08 eV^2 / valence electron
 Maximum number of scf [iter]ations: 100
 (Square brackets indicate name in SCF output, whereas a 'c' in
 the SCF output indicates the quantity has converged.)

Symmetries present (total): 1

  ( 1  0  0)
  ( 0  1  0)
  ( 0  0  1)

225 k-points: 15 x 15 x 1 Monkhorst-Pack grid
225 k-points in the irreducible part of the Brillouin zone
       k-points in crystal coordinates                weights
   0:    -0.46666667   -0.46666667    0.00000000          1/225
   1:    -0.46666667   -0.40000000    0.00000000          1/225
   2:    -0.46666667   -0.33333333    0.00000000          1/225
   3:    -0.46666667   -0.26666667    0.00000000          1/225
   4:    -0.46666667   -0.20000000    0.00000000          1/225
   5:    -0.46666667   -0.13333333    0.00000000          1/225
   6:    -0.46666667   -0.06666667    0.00000000          1/225
   7:    -0.46666667    0.00000000    0.00000000          1/225
   8:    -0.46666667    0.06666667    0.00000000          1/225
   9:    -0.46666667    0.13333333    0.00000000          1/225
          ...
 224:     0.46666667    0.46666667    0.00000000          1/225

Wave functions: Plane wave expansion
  Cutoff energy: 400.000 eV
  Number of coefficients (min, max): 34320, 34524
  Pulay-stress correction: 0.000000 eV/Ang^3 (de/decut=0.000000)
  Using Numpy's FFT
  ScaLapack parameters: grid=1x1, blocksize=None
  Wavefunction extrapolation:
    Improved wavefunction reuse through dual PAW basis 

Occupation numbers: Fermi-Dirac:
  width: 0.0200  # eV
 

Eigensolver
   Davidson(niter=2) 

Densities:
  Coarse grid: 35*30*200 grid
  Fine grid: 70*60*400 grid
  Total Charge: 0.000000 

Density mixing:
  Method: separate
  Backend: pulay
  Linear mixing parameter: 0.04
  old densities: 8
  Damping of long wavelength oscillations: 50 

Hamiltonian:
  XC and Coulomb potentials evaluated on a 70*60*400 grid
  Using the PBE Exchange-Correlation functional
  External potential:
    NoExternalPotential
 

XC parameters: PBE with 2 nearest neighbor stencil

Memory estimate:
  Process memory now: 393.00 MiB
  Calculator: 6227.70 MiB
    Density: 113.03 MiB
      Arrays: 41.66 MiB
      Localized functions: 45.74 MiB
      Mixer: 25.63 MiB
    Hamiltonian: 28.35 MiB
      Arrays: 27.24 MiB
      XC: 0.00 MiB
      Poisson: 0.00 MiB
      vbar: 1.12 MiB
    Wavefunctions: 6086.32 MiB
      Arrays psit_nG: 4741.15 MiB
      Eigensolver: 23.95 MiB
      Projections: 12.08 MiB
      Projectors: 1182.60 MiB
      PW-descriptor: 126.54 MiB

Total number of cores used: 1

Number of atoms: 6
Number of atomic orbitals: 42
Number of bands in calculation: 40
Number of valence electrons: 52
Bands to converge: occupied

... initialized

Initializing position-dependent things.

Density initialized from atomic densities
Creating initial wave functions:
  40 bands from LCAO basis set

     .----------------.  
    /|                |  
   / |                |  
  /  |                |  
 *   |                |  
 |   |                |  
 |   |                |  
 |   |                |  
 |   |                |  
 |   |                |  
 |   |                |  
 |   |                |  
 |   |                |  
 |   |                |  
 |   |                |  
 |   |                |  
 |   |                |  
 |   |                |  
 |   |                |  
 |   |                |  
 |   |                |  
 |   |                |  
 |   |                |  
 |   |                |  
 |   |                |  
 |   |                |  
 |   |                |  
 |   | Te       W     |  
 |   |                |  
 |   |                |  
 W   |  Te            |  
 |   |                |  
 |   Te       Te      |  
 |   |                |  
 |   |                |  
 |   |                |  
 |   |                |  
 |   |                |  
 |   |                |  
 |   |                |  
 |   |                |  
 |   |                |  
 |   |                |  
 |   |                |  
 |   |                |  
 |   |                |  
 |   |                |  
 |   |                |  
 |   |                |  
 |   |                |  
 |   |                |  
 |   |                |  
 |   |                |  
 |   .----------------.  
 |  /                /   
 | /                /    
 |/                /     
 *----------------*      

Positions:
   0 W      0.000000    0.000000   21.595000    ( 0.0000,  0.0000,  0.0000)
   1 Te     3.061600    0.000000   21.595000    ( 0.0000,  0.0000,  0.0000)
   2 Te     1.780000    3.083050   23.190000    ( 0.0000,  0.0000,  0.0000)
   3 W      5.340000    3.083050   23.190000    ( 0.0000,  0.0000,  0.0000)
   4 Te     1.780000    0.000000   20.000000    ( 0.0000,  0.0000,  0.0000)
   5 Te     5.340000    0.000000   20.000000    ( 0.0000,  0.0000,  0.0000)

Unit cell:
           periodic     x           y           z      points  spacing
  1. axis:    yes    7.120000    0.000000    0.000000    35     0.2034
  2. axis:    yes    0.000000    6.166101    0.000000    30     0.2055
  3. axis:    no     0.000000    0.000000   43.190000   200     0.2159

  Lengths:   7.120000   6.166101  43.190000
  Angles:   90.000000  90.000000  90.000000

Effective grid spacing dv^(1/3) = 0.2082

     iter     time        total  log10-change:
                         energy   eigst   dens
iter:   1 14:55:07   -16.960217
iter:   2 14:59:59   -16.394303   -1.05  -0.99
iter:   3 15:05:17   -16.245667   -1.77  -1.13
iter:   4 15:10:22   -15.987592   -2.15  -1.17
iter:   5 15:15:45   -15.774421   -1.98  -1.26
iter:   6 15:20:49   -15.712127   -1.97  -1.45
iter:   7 15:26:19   -15.717331   -2.62  -1.69
iter:   8 15:31:50   -15.703475   -3.13  -1.80
iter:   9 15:37:34   -15.707528   -3.06  -1.91
iter:  10 15:43:45   -15.700711   -3.04  -2.09
iter:  11 15:54:34   -15.699112   -3.71  -2.23
iter:  12 16:00:12   -15.698020c  -3.74  -2.40
iter:  13 16:06:17   -15.697438c  -4.01  -2.45
iter:  14 16:12:18   -15.697549c  -4.58  -2.79
iter:  15 16:17:34   -15.697299c  -4.59  -2.80
iter:  16 16:23:01   -15.697268c  -5.12  -3.07
iter:  17 16:33:58   -15.697269c  -5.47  -3.18
iter:  18 16:45:47   -15.697254c  -5.68  -3.18
iter:  19 16:54:04   -15.697240c  -5.79  -3.22
iter:  20 16:59:34   -15.697234c  -5.76  -3.29
iter:  21 17:05:06   -15.697225c  -6.23  -3.46c
iter:  22 17:10:52   -15.697225c  -6.41  -3.54c
iter:  23 17:16:39   -15.697229c  -6.70  -3.65c
iter:  24 17:25:00   -15.697226c  -6.76  -3.73c
iter:  25 17:30:18   -15.697227c  -6.99  -3.87c
iter:  26 17:38:29   -15.697226c  -7.25  -4.05c
iter:  27 17:46:43   -15.697226c  -7.70c -4.22c

Converged after 27 iterations.

Dipole moment: (0.261766, -0.000000, -0.253762) |e|*Ang

Energy contributions relative to reference atoms: (reference = -1616706.077045)

Kinetic:       +110.793877
Potential:      -97.829702
External:        +0.000000
XC:             -28.318037
Entropy (-ST):   -0.029493
Local:           -0.328617
SIC:             +0.000000
--------------------------
Free energy:    -15.711972
Extrapolated:   -15.697226

Showing only first 2 kpts
 Kpt  Band  Eigenvalues  Occupancy
  0    24     -3.41976    1.73987
  0    25     -3.35978    0.50006
  0    26     -3.20912    0.00036
  0    27     -3.13674    0.00001

  1    24     -3.43389    1.86261
  1    25     -3.34200    0.24101
  1    26     -3.22837    0.00093
  1    27     -3.12697    0.00001


Fermi level: -3.38175

No gap
No difference between direct/indirect transitions
Writing to wte2_1T'_gs.gpw (mode='')

Timing:                              incl.     excl.
-----------------------------------------------------------
Hamiltonian:                         0.466     0.005   0.0% |
 Atomic:                             0.118     0.001   0.0% |
  XC Correction:                     0.118     0.118   0.0% |
 Calculate atomic Hamiltonians:      0.061     0.061   0.0% |
 Communicate:                        0.000     0.000   0.0% |
 Initialize Hamiltonian:             0.001     0.001   0.0% |
 Poisson:                            0.005     0.005   0.0% |
 XC 3D grid:                         0.277     0.277   0.0% |
LCAO initialization:               132.256     0.058   0.0% |
 LCAO eigensolver:                  16.677     0.008   0.0% |
  Calculate projections:             0.022     0.022   0.0% |
  DenseAtomicCorrection:             0.061     0.061   0.0% |
  Distribute overlap matrix:         0.009     0.009   0.0% |
  Orbital Layouts:                   9.190     9.190   0.1% |
  Potential matrix:                  0.050     0.050   0.0% |
  Sum over cells:                    7.338     7.338   0.1% |
 LCAO to grid:                     114.466   114.466   1.1% |
 Set positions (LCAO WFS):           1.056     0.082   0.0% |
  Basic WFS set positions:           0.000     0.000   0.0% |
  Basis functions set positions:     0.000     0.000   0.0% |
  P tci:                             0.817     0.817   0.0% |
  ST tci:                            0.144     0.144   0.0% |
  mktci:                             0.011     0.011   0.0% |
PWDescriptor:                        1.572     1.572   0.0% |
Redistribute:                        0.000     0.000   0.0% |
SCF-cycle:                       10603.230     1.012   0.0% |
 Davidson:                        9857.317  1742.776  16.2% |-----|
  Apply H:                        1616.263  1586.193  14.8% |-----|
   HMM T:                           30.071    30.071   0.3% |
  Subspace diag:                  1892.847     0.999   0.0% |
   calc_h_matrix:                 1726.692    79.144   0.7% |
    Apply H:                      1647.547  1610.093  15.0% |-----|
     HMM T:                         37.454    37.454   0.3% |
   diagonalize:                      2.092     2.092   0.0% |
   rotate_psi:                     163.065   163.065   1.5% ||
  calc. matrices:                 3590.878   468.976   4.4% |-|
   Apply H:                       3121.902  3061.650  28.5% |----------|
    HMM T:                          60.252    60.252   0.6% |
  diagonalize:                     699.505   699.505   6.5% |--|
  rotate_psi:                      315.047   315.047   2.9% ||
 Density:                          719.869     0.001   0.0% |
  Atomic density matrices:           0.503     0.503   0.0% |
  Mix:                               6.075     6.075   0.1% |
  Multipole moments:                 0.005     0.005   0.0% |
  Pseudo density:                  713.286   713.277   6.6% |--|
   Symmetrize density:               0.009     0.009   0.0% |
 Hamiltonian:                       12.137     0.122   0.0% |
  Atomic:                            2.702     0.031   0.0% |
   XC Correction:                    2.671     2.671   0.0% |
  Calculate atomic Hamiltonians:     1.197     1.197   0.0% |
  Communicate:                       0.000     0.000   0.0% |
  Poisson:                           0.185     0.185   0.0% |
  XC 3D grid:                        7.931     7.931   0.1% |
 Orthonormalize:                    12.896     0.022   0.0% |
  calc_s_matrix:                     1.603     1.603   0.0% |
  inverse-cholesky:                  0.032     0.032   0.0% |
  projections:                       7.752     7.752   0.1% |
  rotate_psi_s:                      3.486     3.486   0.0% |
Set symmetry:                        0.000     0.000   0.0% |
Other:                               8.146     8.146   0.1% |
-----------------------------------------------------------
Total:                                     10745.671 100.0%

Memory usage: 7.20 GiB
Date: Thu Apr 17 17:46:47 2025
