
  ___ ___ ___ _ _ _  
 |   |   |_  | | | | 
 | | | | | . | | | | 
 |__ |  _|___|_____|  25.1.0
 |___|_|             

User:   georgios-vourvachakis@georgios-vourvachakis-82K2
Date:   Sun Apr 13 18:24:46 2025
Arch:   x86_64
Pid:    194581
CWD:    /home/georgios-vourvachakis/Desktop/DFT_codes
Python: 3.12.3
gpaw:   /home/georgios-vourvachakis/Desktop/DFT_codes/.venv/lib/python3.12/site-packages/gpaw
_gpaw:  /home/georgios-vourvachakis/Desktop/DFT_codes/.venv/lib/python3.12/site-packages/
        _gpaw.cpython-312-x86_64-linux-gnu.so
ase:    /home/georgios-vourvachakis/Desktop/DFT_codes/.venv/lib/python3.12/site-packages/ase (version 3.24.0)
numpy:  /home/georgios-vourvachakis/Desktop/DFT_codes/.venv/lib/python3.12/site-packages/numpy (version 2.2.3)
scipy:  /home/georgios-vourvachakis/Desktop/DFT_codes/.venv/lib/python3.12/site-packages/scipy (version 1.15.1)
libxc:  5.2.3
units:  Angstrom and eV
cores: 1
OpenMP: False
OMP_NUM_THREADS: 1

Input parameters:
  kpts: {gamma: True,
         size: (15, 15, 1)}
  mode: {ecut: 400.0,
         name: pw}
  occupations: {fixmagmom: False,
                name: fermi-dirac,
                width: 0.01}
  setups: {W: :d,2.8}
  spinpol: True
  symmetry: off
  xc: PBE

System changes: positions, numbers, cell, pbc, initial_charges, initial_magmoms 

Initialize ...

species:
  W:
    name: Tungsten
    id: 3ed563b7d19992259c4d7db283f2ff78
    Z: 74.0
    valence: 14
    core: 60
    charge: 0.0
    Hubbard: {U: 2.8,  # eV
              l: 2,
              scale: True}
    file: /home/georgios-vourvachakis/Desktop/DFT_codes/gpaw_datasets/gpaw-setups-0.9.20000/W.PBE.gz
    compensation charges: {type: gauss,
                           rc: 0.40,
                           lmax: 2}
    cutoffs: {filter: 2.36,
              core: 3.02}
    projectors:
      #              energy  rcut
      - 5s(2.00)   -78.830   1.344
      - 6s(2.00)    -5.697   1.344
      - 5p(6.00)   -43.233   1.355
      - 6p(0.00)    -1.367   1.355
      - 5d(4.00)    -4.494   1.228
      -  d          22.717   1.228
  
    # Using partial waves for W as LCAO basis

  Te:
    name: Tellurium
    id: e44b9ef4772d7e5a1c6a47e6d6496588
    Z: 52.0
    valence: 6
    core: 46
    charge: 0.0
    file: /home/georgios-vourvachakis/Desktop/DFT_codes/gpaw_datasets/gpaw-setups-0.9.20000/Te.PBE.gz
    compensation charges: {type: gauss,
                           rc: 0.36,
                           lmax: 2}
    cutoffs: {filter: 2.09,
              core: 3.17}
    projectors:
      #              energy  rcut
      - 5s(2.00)   -15.089   1.180
      - 5p(4.00)    -5.955   1.196
      -  s          12.123   1.180
      -  p          21.256   1.196
      -  d           0.000   1.238
  
    # Using partial waves for Te as LCAO basis

Reference energy: -1616706.077045  # eV

Spin-polarized calculation.
Magnetic moment: 0.000000

Convergence criteria:
 Maximum [total energy] change in last 3 cyles: 0.0005 eV / valence electron
 Maximum integral of absolute [dens]ity change: 0.0001 electrons / valence electron
 Maximum integral of absolute [eigenst]ate change: 4e-08 eV^2 / valence electron
 Maximum number of scf [iter]ations: 333
 (Square brackets indicate name in SCF output, whereas a 'c' in
 the SCF output indicates the quantity has converged.)

Symmetries present (total): 1

  ( 1  0  0)
  ( 0  1  0)
  ( 0  0  1)

225 k-points: 15 x 15 x 1 Monkhorst-Pack grid
225 k-points in the irreducible part of the Brillouin zone
       k-points in crystal coordinates                weights
   0:    -0.46666667   -0.46666667    0.00000000          1/225
   1:    -0.46666667   -0.40000000    0.00000000          1/225
   2:    -0.46666667   -0.33333333    0.00000000          1/225
   3:    -0.46666667   -0.26666667    0.00000000          1/225
   4:    -0.46666667   -0.20000000    0.00000000          1/225
   5:    -0.46666667   -0.13333333    0.00000000          1/225
   6:    -0.46666667   -0.06666667    0.00000000          1/225
   7:    -0.46666667    0.00000000    0.00000000          1/225
   8:    -0.46666667    0.06666667    0.00000000          1/225
   9:    -0.46666667    0.13333333    0.00000000          1/225
          ...
 224:     0.46666667    0.46666667    0.00000000          1/225

Wave functions: Plane wave expansion
  Cutoff energy: 400.000 eV
  Number of coefficients (min, max): 34320, 34524
  Pulay-stress correction: 0.000000 eV/Ang^3 (de/decut=0.000000)
  Using Numpy's FFT
  ScaLapack parameters: grid=1x1, blocksize=None
  Wavefunction extrapolation:
    Improved wavefunction reuse through dual PAW basis 

Occupation numbers: Fermi-Dirac:
  width: 0.0100  # eV
 

Eigensolver
   Davidson(niter=2) 

Densities:
  Coarse grid: 35*30*200 grid
  Fine grid: 70*60*400 grid
  Total Charge: 0.000000 

Density mixing:
  Method: difference
  Backend: pulay
  Linear mixing parameter: 0.05
  old densities: 5
  Damping of long wavelength oscillations: 50 

Hamiltonian:
  XC and Coulomb potentials evaluated on a 70*60*400 grid
  Using the PBE Exchange-Correlation functional
  External potential:
    NoExternalPotential
 

XC parameters: PBE with 2 nearest neighbor stencil

Memory estimate:
  Process memory now: 388.00 MiB
  Calculator: 10053.77 MiB
    Density: 124.24 MiB
      Arrays: 56.08 MiB
      Localized functions: 45.74 MiB
      Mixer: 22.43 MiB
    Hamiltonian: 42.77 MiB
      Arrays: 41.66 MiB
      XC: 0.00 MiB
      Poisson: 0.00 MiB
      vbar: 1.12 MiB
    Wavefunctions: 9886.76 MiB
      Arrays psit_nG: 8534.07 MiB
      Eigensolver: 21.80 MiB
      Projections: 21.75 MiB
      Projectors: 1182.60 MiB
      PW-descriptor: 126.54 MiB

Total number of cores used: 1

Number of atoms: 6
Number of atomic orbitals: 42
Number of bands in calculation: 36
Number of valence electrons: 52
Bands to converge: occupied

... initialized

Initializing position-dependent things.

Density initialized from atomic densities
Creating initial wave functions:
  36 bands from LCAO basis set

     .----------------.  
    /|                |  
   / |                |  
  /  |                |  
 *   |                |  
 |   |                |  
 |   |                |  
 |   |                |  
 |   |                |  
 |   |                |  
 |   |                |  
 |   |                |  
 |   |                |  
 |   |                |  
 |   |                |  
 |   |                |  
 |   |                |  
 |   |                |  
 |   |                |  
 |   |                |  
 |   |                |  
 |   |                |  
 |   |                |  
 |   |                |  
 |   |                |  
 |   |                |  
 |   |                |  
 |   | Te       W     |  
 |   |                |  
 |   |                |  
 W   |  Te            |  
 |   |                |  
 |   Te       Te      |  
 |   |                |  
 |   |                |  
 |   |                |  
 |   |                |  
 |   |                |  
 |   |                |  
 |   |                |  
 |   |                |  
 |   |                |  
 |   |                |  
 |   |                |  
 |   |                |  
 |   |                |  
 |   |                |  
 |   |                |  
 |   |                |  
 |   |                |  
 |   |                |  
 |   |                |  
 |   |                |  
 |   .----------------.  
 |  /                /   
 | /                /    
 |/                /     
 *----------------*      

Positions:
   0 W      0.000000    0.000000   21.595000    ( 0.0000,  0.0000,  0.0000)
   1 Te     3.061600    0.000000   21.595000    ( 0.0000,  0.0000,  0.0000)
   2 Te     1.780000    3.083050   23.190000    ( 0.0000,  0.0000,  0.0000)
   3 W      5.340000    3.083050   23.190000    ( 0.0000,  0.0000,  0.0000)
   4 Te     1.780000    0.000000   20.000000    ( 0.0000,  0.0000,  0.0000)
   5 Te     5.340000    0.000000   20.000000    ( 0.0000,  0.0000,  0.0000)

Unit cell:
           periodic     x           y           z      points  spacing
  1. axis:    yes    7.120000    0.000000    0.000000    35     0.2034
  2. axis:    yes    0.000000    6.166101    0.000000    30     0.2055
  3. axis:    no     0.000000    0.000000   43.190000   200     0.2159

  Lengths:   7.120000   6.166101  43.190000
  Angles:   90.000000  90.000000  90.000000

Effective grid spacing dv^(1/3) = 0.2082

     iter     time        total  log10-change:  magmom
                         energy   eigst   dens
iter:   1 18:38:01   -10.247092                   +0.0000
iter:   2 18:48:12    -9.667300   -1.01  -0.98    -0.0000
iter:   3 18:57:24    -9.433036   -1.74  -1.10    -0.0000
iter:   4 19:07:08    -9.429186   -2.27  -1.15    -0.0000
iter:   5 19:16:15    -9.437800c  -2.63  -1.15    -0.0000
iter:   6 19:26:12    -9.497894   -2.82  -1.15    +0.0000
iter:   7 19:36:15    -9.202448   -2.57  -1.15    -0.0000
iter:   8 19:46:11    -9.362669   -1.65  -1.25    +0.0000
iter:   9 19:56:17    -9.211753   -2.32  -1.38    -0.0000
iter:  10 20:05:56    -9.188814   -3.07  -1.48    +0.0000
iter:  11 20:16:30    -9.151788   -3.34  -1.49    -0.0000
iter:  12 20:27:05    -9.136885   -3.24  -1.50    +0.0000
iter:  13 20:36:56    -9.195001   -3.86  -1.50    -0.0000
iter:  14 20:46:26    -9.141794   -4.39  -1.52    +0.0000
iter:  15 20:57:37    -9.097651   -2.75  -1.51    -0.0000
iter:  16 21:08:13    -9.274301   -2.91  -1.57    +0.0000
iter:  17 21:18:36    -9.220961   -3.87  -1.61    -0.0000
iter:  18 21:29:12    -9.251390   -4.17  -1.62    +0.0000
iter:  19 21:39:43    -9.432134   -2.80  -1.64    -0.0000
iter:  20 21:50:07    -9.624753   -2.73  -1.76    +0.0000
iter:  21 22:01:11    -9.684702   -3.10  -1.82    -0.0000
iter:  22 22:10:36    -9.683783   -3.40  -1.75    -0.0000
iter:  23 22:19:30    -9.717567   -3.56  -1.82    -0.0000
iter:  24 22:28:14    -9.877745   -3.25  -1.80    -0.0000
iter:  25 22:36:55   -10.010214   -2.99  -1.93    -0.0000
iter:  26 22:46:57   -10.058723   -3.16  -2.01    -0.0000
iter:  27 22:58:02   -10.076376   -3.50  -2.11    -0.0000
iter:  28 23:09:16   -10.092463   -3.37  -2.12    +0.0000
iter:  29 23:19:50   -10.095786c  -3.97  -2.25    +0.0000
iter:  30 23:29:50   -10.093852c  -4.45  -2.27    +0.0000
iter:  31 23:40:47   -10.096134c  -4.65  -2.26    +0.0000
iter:  32 23:51:29   -10.103595c  -4.14  -2.27    +0.0000
iter:  33 00:00:56   -10.105930c  -4.76  -2.29    +0.0000
iter:  34 00:10:11   -10.105531c  -5.24  -2.30    -0.0000
iter:  35 00:19:45   -10.106609c  -5.44  -2.29    -0.0000
iter:  36 00:28:34   -10.108597c  -5.52  -2.30    -0.0000
iter:  37 00:37:08   -10.108037c  -5.69  -2.31    -0.0000
iter:  38 00:45:43   -10.110174c  -5.42  -2.31    -0.0000
iter:  39 00:54:23   -10.111020c  -5.81  -2.32    -0.0001
iter:  40 01:02:56   -10.111065c  -5.61  -2.32    -0.0003
iter:  41 01:11:33   -10.119010c  -4.34  -2.34    -0.0003
iter:  42 01:20:11   -10.125095c  -4.57  -2.37    -0.0026
iter:  43 01:28:46   -10.127441c  -4.94  -2.38    -0.0003
iter:  44 01:37:22   -10.117464c  -4.60  -2.37    -0.0037
iter:  45 01:46:09   -10.124388c  -5.03  -2.34    +0.0033
iter:  46 01:55:19   -10.126949c  -5.06  -2.37    +0.0052
iter:  47 02:04:13   -10.126409c  -4.68  -2.37    +0.0230
iter:  48 02:12:45   -10.175461   -3.90  -2.35    +0.0456
iter:  49 02:21:18   -10.272499   -3.27  -2.30    +0.1269
iter:  50 02:29:58   -10.595594   -2.71  -2.23    +0.3475
iter:  51 02:38:35   -10.905416   -2.78  -2.15    +0.6940
iter:  52 02:47:14   -11.131166   -2.32  -2.07    +1.1918
iter:  53 02:55:46   -11.225229   -3.06  -2.06    +1.1831
iter:  54 03:04:25   -11.111964   -3.02  -2.02    +1.1733
iter:  55 03:13:15   -11.121868   -3.32  -2.07    +1.1599
iter:  56 03:21:48   -11.151145   -3.19  -2.08    +1.1793
iter:  57 03:30:18   -11.119459   -3.30  -2.09    +1.1667
iter:  58 03:38:48   -11.171935   -3.24  -2.11    +1.2082
iter:  59 03:47:24   -11.137000   -2.47  -2.14    +1.1188
iter:  60 03:56:00   -11.195314   -3.29  -2.29    +1.1972
iter:  61 04:04:40   -11.167365   -2.81  -2.30    +1.0528
iter:  62 04:13:17   -11.225087   -2.98  -2.34    +1.0457
iter:  63 04:21:56   -11.111922   -2.66  -2.33    +1.0603
iter:  64 04:30:35   -11.120649   -3.71  -2.35    +1.0612
iter:  65 04:39:21   -11.124503c  -4.01  -2.41    +1.0616
iter:  66 04:47:52   -11.131003c  -4.10  -2.51    +1.0596
iter:  67 04:56:29   -11.130984c  -4.00  -2.52    +1.0719
iter:  68 05:05:01   -11.141739c  -3.97  -2.56    +1.0776
iter:  69 05:13:35   -11.126951c  -3.90  -2.67    +1.0793
iter:  70 05:22:05   -11.146108c  -3.91  -2.67    +1.0967
iter:  71 05:30:38   -11.130011c  -3.41  -2.71    +1.1018
iter:  72 05:39:14   -11.171762   -3.22  -2.63    +1.1196
iter:  73 05:47:50   -11.178360   -3.08  -2.70    +1.1588
iter:  74 05:56:27   -11.258933   -2.56  -2.59    +1.1216
iter:  75 06:05:05   -11.381668   -2.93  -2.44    +1.1884
iter:  76 06:13:42   -11.231925   -2.78  -2.23    +0.9637
iter:  77 06:22:20   -11.283761   -3.29  -2.48    +1.0599
iter:  78 06:30:54   -11.303705   -3.51  -2.31    +1.0489
iter:  79 06:39:24   -11.352791   -3.30  -2.26    +1.0803
iter:  80 06:47:55   -11.340423   -4.00  -2.12    +1.0674
iter:  81 06:56:28   -11.379494   -3.56  -2.13    +1.0730
iter:  82 07:05:03   -11.380654   -3.95  -2.07    +1.0832
iter:  83 07:13:44   -11.446025   -3.01  -2.12    +1.0908
iter:  84 07:22:25   -11.470947   -3.32  -1.95    +1.1910
iter:  85 07:30:55   -11.471836c  -2.97  -1.89    +1.0297
iter:  86 07:39:33   -11.532306   -3.24  -1.95    +1.1774
iter:  87 07:48:06   -11.514742   -3.44  -1.86    +1.0640
iter:  88 07:56:43   -11.530432c  -3.25  -1.93    +1.1801
iter:  89 08:05:23   -11.601987   -3.02  -1.89    +1.3464
iter:  90 08:14:02   -11.519485   -3.26  -1.80    +1.1554
iter:  91 08:22:52   -11.557095   -3.41  -1.90    +1.1794
iter:  92 08:31:38   -11.588063   -3.28  -1.91    +1.2661
iter:  93 08:40:19   -11.526047   -3.21  -1.87    +1.2379
iter:  94 08:49:05   -11.520354   -3.20  -1.88    +1.2483
iter:  95 08:57:45   -11.561261   -2.62  -1.85    +1.3249

###
HERE WE DECIDED TO EMPLOY A TWO-STEP APPROACH TO REDUCE CALCULATION TIME AND IMPROVE CONVERGENCE
###
