
  ___ ___ ___ _ _ _  
 |   |   |_  | | | | 
 | | | | | . | | | | 
 |__ |  _|___|_____|  25.1.0
 |___|_|             

User:   georgios-vourvachakis@georgios-vourvachakis-82K2
Date:   Tue Apr 15 13:24:22 2025
Arch:   x86_64
Pid:    582180
CWD:    /home/georgios-vourvachakis/Desktop/DFT_codes
Python: 3.12.3
gpaw:   /home/georgios-vourvachakis/Desktop/DFT_codes/.venv/lib/python3.12/site-packages/gpaw
_gpaw:  /home/georgios-vourvachakis/Desktop/DFT_codes/.venv/lib/python3.12/site-packages/
        _gpaw.cpython-312-x86_64-linux-gnu.so
ase:    /home/georgios-vourvachakis/Desktop/DFT_codes/.venv/lib/python3.12/site-packages/ase (version 3.24.0)
numpy:  /home/georgios-vourvachakis/Desktop/DFT_codes/.venv/lib/python3.12/site-packages/numpy (version 2.2.3)
scipy:  /home/georgios-vourvachakis/Desktop/DFT_codes/.venv/lib/python3.12/site-packages/scipy (version 1.15.1)
libxc:  5.2.3
units:  Angstrom and eV
cores: 1
OpenMP: False
OMP_NUM_THREADS: 1

Reading from wte2_1T'_initial.gpw
Read dipole, energy, free_energy, magmom, magmoms
Reading input parameters:
  convergence: {bands: occupied,
                density: 0.001,
                eigenstates: 4e-08,
                energy: 0.0001}
  kpts: {gamma: True,
         size: [5, 5, 1]}
  maxiter: 100
  mixer: {backend: pulay,
          beta: 0.1,
          method: separate,
          nmaxold: 5,
          weight: 50.0}
  mode: {ecut: 400.0,
         name: pw}
  occupations: {name: fermi-dirac,
                width: 0.05}
  setups: {W: :d,2.5}
  spinpol: False
  symmetry: off
  xc: PBE

Initialize ...

species:
  W:
    name: Tungsten
    id: 3ed563b7d19992259c4d7db283f2ff78
    Z: 74.0
    valence: 14
    core: 60
    charge: 0.0
    Hubbard: {U: 2.5,  # eV
              l: 2,
              scale: True}
    file: /home/georgios-vourvachakis/Desktop/DFT_codes/gpaw_datasets/gpaw-setups-0.9.20000/W.PBE.gz
    compensation charges: {type: gauss,
                           rc: 0.40,
                           lmax: 2}
    cutoffs: {filter: 2.36,
              core: 3.02}
    projectors:
      #              energy  rcut
      - 5s(2.00)   -78.830   1.344
      - 6s(2.00)    -5.697   1.344
      - 5p(6.00)   -43.233   1.355
      - 6p(0.00)    -1.367   1.355
      - 5d(4.00)    -4.494   1.228
      -  d          22.717   1.228
  
    # Using partial waves for W as LCAO basis

  Te:
    name: Tellurium
    id: e44b9ef4772d7e5a1c6a47e6d6496588
    Z: 52.0
    valence: 6
    core: 46
    charge: 0.0
    file: /home/georgios-vourvachakis/Desktop/DFT_codes/gpaw_datasets/gpaw-setups-0.9.20000/Te.PBE.gz
    compensation charges: {type: gauss,
                           rc: 0.36,
                           lmax: 2}
    cutoffs: {filter: 2.09,
              core: 3.17}
    projectors:
      #              energy  rcut
      - 5s(2.00)   -15.089   1.180
      - 5p(4.00)    -5.955   1.196
      -  s          12.123   1.180
      -  p          21.256   1.196
      -  d           0.000   1.238
  
    # Using partial waves for Te as LCAO basis

Reference energy: -1616706.077045  # eV

Spin-paired calculation

Convergence criteria:
 Maximum [total energy] change in last 3 cyles: 0.0001 eV / valence electron
 Maximum integral of absolute [dens]ity change: 0.001 electrons / valence electron
 Maximum integral of absolute [eigenst]ate change: 4e-08 eV^2 / valence electron
 Maximum number of scf [iter]ations: 100
 (Square brackets indicate name in SCF output, whereas a 'c' in
 the SCF output indicates the quantity has converged.)

Symmetries present (total): 1

  ( 1  0  0)
  ( 0  1  0)
  ( 0  0  1)

25 k-points: 5 x 5 x 1 Monkhorst-Pack grid
25 k-points in the irreducible part of the Brillouin zone
       k-points in crystal coordinates                weights
   0:    -0.40000000   -0.40000000    0.00000000          1/25
   1:    -0.40000000   -0.20000000    0.00000000          1/25
   2:    -0.40000000    0.00000000    0.00000000          1/25
   3:    -0.40000000    0.20000000    0.00000000          1/25
   4:    -0.40000000    0.40000000    0.00000000          1/25
   5:    -0.20000000   -0.40000000    0.00000000          1/25
   6:    -0.20000000   -0.20000000    0.00000000          1/25
   7:    -0.20000000    0.00000000    0.00000000          1/25
   8:    -0.20000000    0.20000000    0.00000000          1/25
   9:    -0.20000000    0.40000000    0.00000000          1/25
          ...
  24:     0.40000000    0.40000000    0.00000000          1/25

Wave functions: Plane wave expansion
  Cutoff energy: 400.000 eV
  Number of coefficients (min, max): 34320, 34511
  Pulay-stress correction: 0.000000 eV/Ang^3 (de/decut=0.000000)
  Using Numpy's FFT
  ScaLapack parameters: grid=1x1, blocksize=None
  Wavefunction extrapolation:
    Improved wavefunction reuse through dual PAW basis 

Occupation numbers: Fermi-Dirac:
  width: 0.0500  # eV
 

Eigensolver
   Davidson(niter=2) 

Densities:
  Coarse grid: 35*30*200 grid
  Fine grid: 70*60*400 grid
  Total Charge: 0.000000 

Density mixing:
  Method: separate
  Backend: pulay
  Linear mixing parameter: 0.1
  old densities: 5
  Damping of long wavelength oscillations: 50 

Hamiltonian:
  XC and Coulomb potentials evaluated on a 70*60*400 grid
  Using the PBE Exchange-Correlation functional
  External potential:
    NoExternalPotential
 

XC parameters: PBE with 2 nearest neighbor stencil

Memory estimate:
  Process memory now: 244.98 MiB
  Calculator: 781.28 MiB
    Density: 103.41 MiB
      Arrays: 41.66 MiB
      Localized functions: 45.74 MiB
      Mixer: 16.02 MiB
    Hamiltonian: 28.35 MiB
      Arrays: 27.24 MiB
      XC: 0.00 MiB
      Poisson: 0.00 MiB
      vbar: 1.12 MiB
    Wavefunctions: 649.51 MiB
      Arrays psit_nG: 473.94 MiB
      Eigensolver: 21.79 MiB
      Projections: 1.21 MiB
      Projectors: 131.40 MiB
      PW-descriptor: 21.18 MiB

Total number of cores used: 1

Number of atoms: 6
Number of atomic orbitals: 42
Number of bands in calculation: 36
Number of valence electrons: 52
Bands to converge: occupied

... initialized

Input parameters:
  convergence: {density: 0.0001,
                eigenstates: 1e-06,
                energy: 0.0001}
  kpts: {gamma: True,
         size: (15, 15, 1)}
  maxiter: 30
  mixer: {backend: pulay,
          beta: 0.15,
          method: separate,
          nmaxold: 10,
          weight: 50.0}
  nbands: 40
  occupations: {fixmagmom: False,
                name: fermi-dirac,
                width: 0.01}
  spinpol: True

System changes: initial_magmoms 

Initialize ...

species:
  W:
    name: Tungsten
    id: 3ed563b7d19992259c4d7db283f2ff78
    Z: 74.0
    valence: 14
    core: 60
    charge: 0.0
    Hubbard: {U: 2.5,  # eV
              l: 2,
              scale: True}
    file: /home/georgios-vourvachakis/Desktop/DFT_codes/gpaw_datasets/gpaw-setups-0.9.20000/W.PBE.gz
    compensation charges: {type: gauss,
                           rc: 0.40,
                           lmax: 2}
    cutoffs: {filter: 2.36,
              core: 3.02}
    projectors:
      #              energy  rcut
      - 5s(2.00)   -78.830   1.344
      - 6s(2.00)    -5.697   1.344
      - 5p(6.00)   -43.233   1.355
      - 6p(0.00)    -1.367   1.355
      - 5d(4.00)    -4.494   1.228
      -  d          22.717   1.228
  
    # Using partial waves for W as LCAO basis

  Te:
    name: Tellurium
    id: e44b9ef4772d7e5a1c6a47e6d6496588
    Z: 52.0
    valence: 6
    core: 46
    charge: 0.0
    file: /home/georgios-vourvachakis/Desktop/DFT_codes/gpaw_datasets/gpaw-setups-0.9.20000/Te.PBE.gz
    compensation charges: {type: gauss,
                           rc: 0.36,
                           lmax: 2}
    cutoffs: {filter: 2.09,
              core: 3.17}
    projectors:
      #              energy  rcut
      - 5s(2.00)   -15.089   1.180
      - 5p(4.00)    -5.955   1.196
      -  s          12.123   1.180
      -  p          21.256   1.196
      -  d           0.000   1.238
  
    # Using partial waves for Te as LCAO basis

Reference energy: -1616706.077045  # eV

Spin-polarized calculation.
Magnetic moment: 2.000000

Convergence criteria:
 Maximum [total energy] change in last 3 cyles: 0.0001 eV / valence electron
 Maximum integral of absolute [dens]ity change: 0.0001 electrons / valence electron
 Maximum integral of absolute [eigenst]ate change: 1e-06 eV^2 / valence electron
 Maximum number of scf [iter]ations: 30
 (Square brackets indicate name in SCF output, whereas a 'c' in
 the SCF output indicates the quantity has converged.)

Symmetries present (total): 1

  ( 1  0  0)
  ( 0  1  0)
  ( 0  0  1)

225 k-points: 15 x 15 x 1 Monkhorst-Pack grid
225 k-points in the irreducible part of the Brillouin zone
       k-points in crystal coordinates                weights
   0:    -0.46666667   -0.46666667    0.00000000          1/225
   1:    -0.46666667   -0.40000000    0.00000000          1/225
   2:    -0.46666667   -0.33333333    0.00000000          1/225
   3:    -0.46666667   -0.26666667    0.00000000          1/225
   4:    -0.46666667   -0.20000000    0.00000000          1/225
   5:    -0.46666667   -0.13333333    0.00000000          1/225
   6:    -0.46666667   -0.06666667    0.00000000          1/225
   7:    -0.46666667    0.00000000    0.00000000          1/225
   8:    -0.46666667    0.06666667    0.00000000          1/225
   9:    -0.46666667    0.13333333    0.00000000          1/225
          ...
 224:     0.46666667    0.46666667    0.00000000          1/225

Wave functions: Plane wave expansion
  Cutoff energy: 400.000 eV
  Number of coefficients (min, max): 34320, 34524
  Pulay-stress correction: 0.000000 eV/Ang^3 (de/decut=0.000000)
  Using Numpy's FFT
  ScaLapack parameters: grid=1x1, blocksize=None
  Wavefunction extrapolation:
    Improved wavefunction reuse through dual PAW basis 

Occupation numbers: Fermi-Dirac:
  width: 0.0100  # eV
 

Eigensolver
   Davidson(niter=2) 

Densities:
  Coarse grid: 35*30*200 grid
  Fine grid: 70*60*400 grid
  Total Charge: 0.000000 

Density mixing:
  Method: separate
  Backend: pulay
  Linear mixing parameter: 0.15
  old densities: 10
  Damping of long wavelength oscillations: 50 

Hamiltonian:
  XC and Coulomb potentials evaluated on a 70*60*400 grid
  Using the PBE Exchange-Correlation functional
  External potential:
    NoExternalPotential
 

XC parameters: PBE with 2 nearest neighbor stencil

Memory estimate:
  Process memory now: 397.75 MiB
  Calculator: 11048.23 MiB
    Density: 165.90 MiB
      Arrays: 56.08 MiB
      Localized functions: 45.74 MiB
      Mixer: 64.09 MiB
    Hamiltonian: 42.77 MiB
      Arrays: 41.66 MiB
      XC: 0.00 MiB
      Poisson: 0.00 MiB
      vbar: 1.12 MiB
    Wavefunctions: 10839.56 MiB
      Arrays psit_nG: 9482.30 MiB
      Eigensolver: 23.95 MiB
      Projections: 24.17 MiB
      Projectors: 1182.60 MiB
      PW-descriptor: 126.54 MiB

Total number of cores used: 1

Number of atoms: 6
Number of atomic orbitals: 42
Number of bands in calculation: 40
Number of valence electrons: 52
Bands to converge: occupied

... initialized

Initializing position-dependent things.

Density initialized from atomic densities
Creating initial wave functions:
  40 bands from LCAO basis set

     .----------------.  
    /|                |  
   / |                |  
  /  |                |  
 *   |                |  
 |   |                |  
 |   |                |  
 |   |                |  
 |   |                |  
 |   |                |  
 |   |                |  
 |   |                |  
 |   |                |  
 |   |                |  
 |   |                |  
 |   |                |  
 |   |                |  
 |   |                |  
 |   |                |  
 |   |                |  
 |   |                |  
 |   |                |  
 |   |                |  
 |   |                |  
 |   |                |  
 |   |                |  
 |   |                |  
 |   | Te       W     |  
 |   |                |  
 |   |                |  
 W   |  Te            |  
 |   |                |  
 |   Te       Te      |  
 |   |                |  
 |   |                |  
 |   |                |  
 |   |                |  
 |   |                |  
 |   |                |  
 |   |                |  
 |   |                |  
 |   |                |  
 |   |                |  
 |   |                |  
 |   |                |  
 |   |                |  
 |   |                |  
 |   |                |  
 |   |                |  
 |   |                |  
 |   |                |  
 |   |                |  
 |   |                |  
 |   .----------------.  
 |  /                /   
 | /                /    
 |/                /     
 *----------------*      

Positions:
   0 W      0.000000    0.000000   21.595000    ( 0.0000,  0.0000,  1.0000)
   1 Te     3.061600    0.000000   21.595000    ( 0.0000,  0.0000,  0.0000)
   2 Te     1.780000    3.083050   23.190000    ( 0.0000,  0.0000,  0.0000)
   3 W      5.340000    3.083050   23.190000    ( 0.0000,  0.0000,  1.0000)
   4 Te     1.780000    0.000000   20.000000    ( 0.0000,  0.0000,  0.0000)
   5 Te     5.340000    0.000000   20.000000    ( 0.0000,  0.0000,  0.0000)

Unit cell:
           periodic     x           y           z      points  spacing
  1. axis:    yes    7.120000    0.000000    0.000000    35     0.2034
  2. axis:    yes    0.000000    6.166101    0.000000    30     0.2055
  3. axis:    no     0.000000    0.000000   43.190000   200     0.2159

  Lengths:   7.120000   6.166101  43.190000
  Angles:   90.000000  90.000000  90.000000

Effective grid spacing dv^(1/3) = 0.2082

     iter     time        total  log10-change:  magmom
                         energy   eigst   dens
iter:   1 13:37:41   -11.526694                   +2.0004
iter:   2 13:48:59   -12.341535   -0.95  -1.01    +2.2961
iter:   3 14:00:28   -13.475347   -1.34  -1.02    +2.5216
iter:   4 14:12:03   -15.289392   -1.62  -1.03    +2.6787
iter:   5 14:24:02   -14.803444   -2.38  -0.97    +2.5484
iter:   6 14:36:45   -30.227087   -0.43  -1.00    +3.1763
iter:   7 14:49:05   -17.480162   -1.42  -0.67    +3.5035
iter:   8 15:01:17   -14.266041   -1.01  -0.81    +3.9459
iter:   9 15:13:14   -16.589337   -2.07  -1.13    +4.2598
iter:  10 15:25:49   -14.370566   -1.66  -0.88    +4.3115
iter:  11 15:36:40   -14.884505   -2.70  -1.19    +4.4520
iter:  12 15:48:10   -31.506188   -0.65  -1.08    +4.4540
iter:  13 15:59:38   -23.677216   -1.99  -0.66    +4.3833
iter:  14 16:13:10   -13.314516   -0.52  -0.72    +4.5224
iter:  15 16:26:08   -13.372396   -1.57  -1.14    +4.6340
iter:  16 16:38:52   -51.079124   +0.23  -1.19    +5.3853
iter:  17 16:50:40   -16.443034   -0.67  -0.48    +4.6047
iter:  18 17:03:13   -13.735149   -1.13  -1.08    +4.7173
iter:  19 17:15:19   -14.171594   -1.27  -1.29    +4.5303
iter:  20 17:27:27   -13.672277   -2.71  -1.17    +4.5593
iter:  21 17:39:22   -13.858284   -1.96  -1.26    +4.7245
iter:  22 17:51:08   -14.007287   -2.69  -1.31    +4.7251
iter:  23 18:03:09   -14.753703   -1.91  -1.30    +4.7100
iter:  24 18:15:40   -26.343748   -0.54  -1.20    +4.9585
iter:  25 18:28:05   -14.130886   -0.50  -0.73    +4.8666
iter:  26 18:40:55   -14.012860   -2.25  -1.30    +5.0616
iter:  27 18:53:59   -16.257794   -1.21  -1.34    +5.3583
iter:  28 19:07:54   -47.293886   -0.16  -1.18    +5.7812
iter:  29 19:21:50   -13.939488   -0.31  -0.48    +5.0998
iter:  30 19:35:36   -14.061227   -1.65  -1.37    +5.1536

Did not converge!

Here are some tips:

1) Make sure the geometry and spin-state is physically sound.
2) Use less aggressive density mixing.
3) Solve the eigenvalue problem more accurately at each scf-step.
4) Use a smoother distribution function for the occupation numbers.
5) Try adding more empty states.
6) Use enough k-points.
7) Don't let your structure optimization algorithm take too large steps.
8) Solve the Poisson equation more accurately.
9) Better initial guess for the wave functions.

See details here:

    https://gpaw.readthedocs.io/documentation/convergence.html


Writing to wte2_1T'_gs.gpw (mode='')

Timing:                              incl.     excl.
-----------------------------------------------------------
Hamiltonian:                         0.955     0.004   0.0% |
 Atomic:                             0.210     0.002   0.0% |
  XC Correction:                     0.208     0.208   0.0% |
 Calculate atomic Hamiltonians:      0.040     0.040   0.0% |
 Communicate:                        0.000     0.000   0.0% |
 Initialize Hamiltonian:             0.001     0.001   0.0% |
 Poisson:                            0.007     0.007   0.0% |
 XC 3D grid:                         0.694     0.694   0.0% |
LCAO initialization:               240.962     0.068   0.0% |
 LCAO eigensolver:                  32.808     0.026   0.0% |
  Calculate projections:             0.052     0.052   0.0% |
  DenseAtomicCorrection:             0.112     0.112   0.0% |
  Distribute overlap matrix:         0.012     0.012   0.0% |
  Orbital Layouts:                  18.542    18.542   0.1% |
  Potential matrix:                  0.154     0.154   0.0% |
  Sum over cells:                   13.910    13.910   0.1% |
 LCAO to grid:                     207.116   207.116   0.9% |
 Set positions (LCAO WFS):           0.969     0.074   0.0% |
  Basic WFS set positions:           0.000     0.000   0.0% |
  Basis functions set positions:     0.000     0.000   0.0% |
  P tci:                             0.768     0.768   0.0% |
  ST tci:                            0.124     0.124   0.0% |
  mktci:                             0.002     0.002   0.0% |
PWDescriptor:                        1.367     1.367   0.0% |
Redistribute:                        0.000     0.000   0.0% |
SCF-cycle:                       22133.241     9.493   0.0% |
 Davidson:                       19076.001  3107.807  13.9% |-----|
  Apply H:                        3147.343  3089.438  13.8% |-----|
   HMM T:                           57.905    57.905   0.3% |
  Subspace diag:                  4892.921     6.747   0.0% |
   calc_h_matrix:                 4514.287   165.594   0.7% |
    Apply H:                      4348.693  3287.890  14.7% |-----|
     HMM T:                       1060.803  1060.803   4.7% |-|
   diagonalize:                      4.947     4.947   0.0% |
   rotate_psi:                     366.938   366.938   1.6% ||
  calc. matrices:                 7040.748   989.565   4.4% |-|
   Apply H:                       6051.184  5935.785  26.5% |----------|
    HMM T:                         115.399   115.399   0.5% |
  diagonalize:                     199.459   199.459   0.9% |
  rotate_psi:                      687.723   687.723   3.1% ||
 Density:                         2935.538     0.008   0.0% |
  Atomic density matrices:           3.298     3.298   0.0% |
  Mix:                              59.589    59.589   0.3% |
  Multipole moments:                 0.050     0.050   0.0% |
  Pseudo density:                 2872.594  2872.571  12.8% |----|
   Symmetrize density:               0.023     0.023   0.0% |
 Hamiltonian:                       50.447     1.057   0.0% |
  Atomic:                            7.007     0.201   0.0% |
   XC Correction:                    6.807     6.807   0.0% |
  Calculate atomic Hamiltonians:     1.392     1.392   0.0% |
  Communicate:                       0.002     0.002   0.0% |
  Poisson:                           2.578     2.578   0.0% |
  XC 3D grid:                       38.410    38.410   0.2% |
 Orthonormalize:                    61.762     0.226   0.0% |
  calc_s_matrix:                     2.912     2.912   0.0% |
  inverse-cholesky:                  0.071     0.071   0.0% |
  projections:                      51.909    51.909   0.2% |
  rotate_psi_s:                      6.643     6.643   0.0% |
Set symmetry:                        0.000     0.000   0.0% |
Other:                               6.412     6.412   0.0% |
-----------------------------------------------------------
Total:                                     22382.937 100.0%

Memory usage: 11.09 GiB
Date: Tue Apr 15 19:37:26 2025
