
  ___ ___ ___ _ _ _  
 |   |   |_  | | | | 
 | | | | | . | | | | 
 |__ |  _|___|_____|  25.1.0
 |___|_|             

User:   georgios-vourvachakis@georgios-vourvachakis-82K2
Date:   Fri Apr 18 18:25:16 2025
Arch:   x86_64
Pid:    339095
CWD:    /home/georgios-vourvachakis/Desktop/DFT_codes
Python: 3.12.3
gpaw:   /home/georgios-vourvachakis/Desktop/DFT_codes/.venv/lib/python3.12/site-packages/gpaw
_gpaw:  /home/georgios-vourvachakis/Desktop/DFT_codes/.venv/lib/python3.12/site-packages/
        _gpaw.cpython-312-x86_64-linux-gnu.so
ase:    /home/georgios-vourvachakis/Desktop/DFT_codes/.venv/lib/python3.12/site-packages/ase (version 3.24.0)
numpy:  /home/georgios-vourvachakis/Desktop/DFT_codes/.venv/lib/python3.12/site-packages/numpy (version 2.2.3)
scipy:  /home/georgios-vourvachakis/Desktop/DFT_codes/.venv/lib/python3.12/site-packages/scipy (version 1.15.1)
libxc:  5.2.3
units:  Angstrom and eV
cores: 8
OpenMP: False
OMP_NUM_THREADS: 1

Input parameters:
  kpts: {gamma: True,
         size: (12, 12, 1)}
  mode: {ecut: 350.0,
         name: pw}
  nbands: 150%
  occupations: {fixmagmom: False,
                name: fermi-dirac,
                width: 0.01}
  spinpol: True
  symmetry: off
  xc: PBE

System changes: positions, numbers, cell, pbc, initial_charges, initial_magmoms 

Initialize ...

species:
  W:
    name: Tungsten
    id: 3ed563b7d19992259c4d7db283f2ff78
    Z: 74.0
    valence: 14
    core: 60
    charge: 0.0
    file: /home/georgios-vourvachakis/Desktop/DFT_codes/gpaw_datasets/gpaw-setups-0.9.20000/W.PBE.gz
    compensation charges: {type: gauss,
                           rc: 0.40,
                           lmax: 2}
    cutoffs: {filter: 2.36,
              core: 3.02}
    projectors:
      #              energy  rcut
      - 5s(2.00)   -78.830   1.344
      - 6s(2.00)    -5.697   1.344
      - 5p(6.00)   -43.233   1.355
      - 6p(0.00)    -1.367   1.355
      - 5d(4.00)    -4.494   1.228
      -  d          22.717   1.228
  
    # Using partial waves for W as LCAO basis

  Se:
    name: Selenium
    id: 2336a0774a38175ff9db42ee3890f88a
    Z: 34.0
    valence: 6
    core: 28
    charge: 0.0
    file: /home/georgios-vourvachakis/Desktop/DFT_codes/gpaw_datasets/gpaw-setups-0.9.20000/Se.PBE.gz
    compensation charges: {type: gauss,
                           rc: 0.27,
                           lmax: 2}
    cutoffs: {filter: 1.77,
              core: 2.67}
    projectors:
      #              energy  rcut
      - 4s(2.00)   -17.277   0.847
      - 4p(4.00)    -6.512   1.005
      -  s           9.935   0.847
      -  p          20.699   1.005
      -  d           0.000   0.847
  
    # Using partial waves for Se as LCAO basis

Reference energy: -570978.735916  # eV

Spin-polarized calculation.
Magnetic moment: 0.000000

Convergence criteria:
 Maximum [total energy] change in last 3 cyles: 0.0005 eV / valence electron
 Maximum integral of absolute [dens]ity change: 0.0001 electrons / valence electron
 Maximum integral of absolute [eigenst]ate change: 4e-08 eV^2 / valence electron
 Maximum number of scf [iter]ations: 333
 (Square brackets indicate name in SCF output, whereas a 'c' in
 the SCF output indicates the quantity has converged.)

Symmetries present (total): 1

  ( 1  0  0)
  ( 0  1  0)
  ( 0  0  1)

144 k-points: 12 x 12 x 1 Monkhorst-Pack grid + [1/24,1/24,0.000000]
144 k-points in the irreducible part of the Brillouin zone
       k-points in crystal coordinates                weights
   0:    -0.41666667   -0.41666667    0.00000000          1/144
   1:    -0.41666667   -0.33333333    0.00000000          1/144
   2:    -0.41666667   -0.25000000    0.00000000          1/144
   3:    -0.41666667   -0.16666667    0.00000000          1/144
   4:    -0.41666667   -0.08333333    0.00000000          1/144
   5:    -0.41666667   -0.00000000    0.00000000          1/144
   6:    -0.41666667    0.08333333    0.00000000          1/144
   7:    -0.41666667    0.16666667    0.00000000          1/144
   8:    -0.41666667    0.25000000    0.00000000          1/144
   9:    -0.41666667    0.33333333    0.00000000          1/144
          ...
 143:     0.50000000    0.50000000    0.00000000          1/144

Wave functions: Plane wave expansion
  Cutoff energy: 350.000 eV
  Number of coefficients (min, max): 2689, 2803
  Pulay-stress correction: 0.000000 eV/Ang^3 (de/decut=0.000000)
  Using Numpy's FFT
  ScaLapack parameters: grid=1x1, blocksize=None
  Wavefunction extrapolation:
    Improved wavefunction reuse through dual PAW basis 

Occupation numbers: Fermi-Dirac:
  width: 0.0100  # eV
 

Eigensolver
   Davidson(niter=2) 

Densities:
  Coarse grid: 15*15*90 grid
  Fine grid: 30*30*180 grid
  Total Charge: 0.000000 

Density mixing:
  Method: difference
  Backend: pulay
  Linear mixing parameter: 0.05
  old densities: 5
  Damping of long wavelength oscillations: 50 

Hamiltonian:
  XC and Coulomb potentials evaluated on a 30*30*180 grid
  Using the PBE Exchange-Correlation functional
  External potential:
    NoExternalPotential
 

XC parameters: PBE with 2 nearest neighbor stencil

Memory estimate:
  Process memory now: 224.38 MiB
  Calculator: 49.00 MiB
    Density: 5.62 MiB
      Arrays: 2.70 MiB
      Localized functions: 1.84 MiB
      Mixer: 1.08 MiB
    Hamiltonian: 2.05 MiB
      Arrays: 2.01 MiB
      XC: 0.00 MiB
      Poisson: 0.00 MiB
      vbar: 0.04 MiB
    Wavefunctions: 41.32 MiB
      Arrays psit_nG: 30.81 MiB
      Eigensolver: 0.60 MiB
      Projections: 0.48 MiB
      Projectors: 7.70 MiB
      PW-descriptor: 1.74 MiB

Total number of cores used: 8
Parallelization over k-points: 4
Domain decomposition: 1 x 1 x 2

Number of atoms: 3
Number of atomic orbitals: 21
Number of bands in calculation: 20
Number of valence electrons: 26
Bands to converge: occupied

... initialized

Initializing position-dependent things.

Density initialized from atomic densities
Creating initial wave functions:
  20 bands from LCAO basis set

                     
                     
                     
                     
            Se       
                     
       W             
                     
            Se       
                     
                     
                     
                     

Positions:
   0 W     -0.000002    0.000002   10.000003    ( 0.0000,  0.0000,  0.0000)
   1 Se     1.639998    0.946856   11.690808    ( 0.0000,  0.0000,  0.0000)
   2 Se     1.639998    0.946856    8.309199    ( 0.0000,  0.0000,  0.0000)

Unit cell:
           periodic     x           y           z      points  spacing
  1. axis:    yes    3.280000    0.000000    0.000000    15     0.1894
  2. axis:    yes   -1.640000    2.840563    0.000000    15     0.1894
  3. axis:    no     0.000000   -0.000000   20.000000    90     0.2222

  Lengths:   3.280000   3.280000  20.000000
  Angles:   90.000000  90.000000 120.000000

Effective grid spacing dv^(1/3) = 0.2096

     iter     time        total  log10-change:  magmom
                         energy   eigst   dens
iter:   1 18:26:05   -20.375726                   +0.0000
iter:   2 18:26:36   -20.354480   -1.33  -1.24    -0.0000
iter:   3 18:27:09   -20.423621   -1.11  -1.26    -0.0000
iter:   4 18:27:42   -20.293724   -2.36  -1.50    +0.0000
iter:   5 18:28:15   -20.214956   -2.55  -1.63    +0.0000
iter:   6 18:28:49   -20.194562   -3.04  -1.85    +0.0000
iter:   7 18:29:22   -20.167646   -2.75  -2.00    -0.0000
iter:   8 18:29:55   -20.168548   -4.11  -2.61    -0.0000
iter:   9 18:30:28   -20.167023c  -3.90  -2.55    -0.0000
iter:  10 18:31:01   -20.166658c  -3.99  -2.86    +0.0000
iter:  11 18:31:36   -20.166624c  -4.84  -3.50    +0.0000
iter:  12 18:32:09   -20.166623c  -5.16  -3.81    +0.0000
iter:  13 18:32:42   -20.166626c  -5.29  -3.73    +0.0000
iter:  14 18:33:16   -20.166618c  -5.71  -3.78    +0.0000
iter:  15 18:33:49   -20.166618c  -6.09  -4.27c   +0.0000
iter:  16 18:34:23   -20.166618c  -6.29  -4.26c   -0.0000
iter:  17 18:34:56   -20.166618c  -6.52  -4.29c   -0.0000
iter:  18 18:35:29   -20.166618c  -6.64  -4.46c   -0.0000
iter:  19 18:36:03   -20.166618c  -6.85  -4.35c   +0.0000
iter:  20 18:36:36   -20.166618c  -7.13  -4.91c   +0.0000
iter:  21 18:37:10   -20.166618c  -7.38  -5.21c   +0.0000
iter:  22 18:37:44   -20.166618c  -7.57c -5.43c   +0.0000

Converged after 22 iterations.

Dipole moment: (4.249388, -2.453391, -0.000000) |e|*Ang

Total magnetic moment: (0.000000, 0.000000, 0.000000)
Local magnetic moments:
   0 W  ( 0.000000,  0.000000, -0.000000)
   1 Se ( 0.000000,  0.000000, -0.000000)
   2 Se ( 0.000000,  0.000000, -0.000000)

Energy contributions relative to reference atoms: (reference = -570978.735916)

Kinetic:        +21.773173
Potential:      -22.397338
External:        +0.000000
XC:             -19.340442
Entropy (-ST):   -0.000000
Local:           -0.202011
SIC:             +0.000000
--------------------------
Free energy:    -20.166618
Extrapolated:   -20.166618

Spin contamination: 0.000000 electrons
Showing only first 2 kpts
                      Up                     Down
 Kpt  Band  Eigenvalues  Occupancy  Eigenvalues  Occupancy
  0    11     -2.88769    1.00000     -2.88769    1.00000
  0    12     -1.03500    1.00000     -1.03500    1.00000
  0    13      1.58930    0.00000      1.58930    0.00000
  0    14      2.42593    0.00000      2.42593    0.00000

  1    11     -2.94109    1.00000     -2.94109    1.00000
  1    12     -0.87964    1.00000     -0.87964    1.00000
  1    13      1.30558    0.00000      1.30558    0.00000
  1    14      2.21987    0.00000      2.21987    0.00000


Fermi level: 0.74288

Gap: 1.633 eV
Transition (v -> c):
  (s=1, k=117, n=12, [0.33, 0.33, 0.00]) -> (s=0, k=19, n=13, [-0.33, 0.17, 0.00])
Direct/indirect transitions are different
Direct gap: 1.701 eV
Transition at: (s=1, k=13, n=12, [-0.33, -0.33, 0.00])
Writing to wse2_1H_gs.gpw (mode='')

Timing:                              incl.     excl.
-----------------------------------------------------------
Hamiltonian:                         1.097     0.021   0.0% |
 Atomic:                             0.062     0.062   0.0% |
  XC Correction:                     0.000     0.000   0.0% |
 Calculate atomic Hamiltonians:      0.002     0.002   0.0% |
 Communicate:                        0.051     0.051   0.0% |
 Initialize Hamiltonian:             0.000     0.000   0.0% |
 Poisson:                            0.000     0.000   0.0% |
 XC 3D grid:                         0.962     0.962   0.0% |
LCAO initialization:                17.619     0.058   0.0% |
 LCAO eigensolver:                  14.793     0.002   0.0% |
  Calculate projections:             0.002     0.002   0.0% |
  DenseAtomicCorrection:             0.006     0.006   0.0% |
  Distribute overlap matrix:         2.929     2.929   0.1% |
  Orbital Layouts:                   5.028     5.028   0.2% |
  Potential matrix:                  0.069     0.069   0.0% |
  Sum over cells:                    6.757     6.757   0.3% |
 LCAO to grid:                       2.711     2.711   0.1% |
 Set positions (LCAO WFS):           0.057     0.015   0.0% |
  Basic WFS set positions:           0.000     0.000   0.0% |
  Basis functions set positions:     0.000     0.000   0.0% |
  P tci:                             0.016     0.016   0.0% |
  ST tci:                            0.024     0.024   0.0% |
  mktci:                             0.003     0.003   0.0% |
PWDescriptor:                        0.021     0.021   0.0% |
SCF-cycle:                         729.049    24.635   1.2% |
 Davidson:                         625.468    21.669   1.0% |
  Apply H:                          51.768    51.225   2.5% ||
   HMM T:                            0.544     0.544   0.0% |
  Subspace diag:                    79.759     0.205   0.0% |
   calc_h_matrix:                   51.440     0.706   0.0% |
    Apply H:                        50.734    50.218   2.4% ||
     HMM T:                          0.516     0.516   0.0% |
   diagonalize:                     27.110    27.110   1.3% ||
   rotate_psi:                       1.005     1.005   0.0% |
  calc. matrices:                   92.522     7.873   0.4% |
   Apply H:                         84.650    83.767   4.1% |-|
    HMM T:                           0.883     0.883   0.0% |
  diagonalize:                     324.840   324.840  15.7% |-----|
  rotate_psi:                       54.910    54.910   2.7% ||
 Density:                           50.230     0.000   0.0% |
  Atomic density matrices:           0.046     0.046   0.0% |
  Mix:                              43.463    43.463   2.1% ||
  Multipole moments:                 0.002     0.002   0.0% |
  Pseudo density:                    6.719     6.719   0.3% |
   Symmetrize density:               0.000     0.000   0.0% |
 Hamiltonian:                       28.515     0.238   0.0% |
  Atomic:                            2.898     2.898   0.1% |
   XC Correction:                    0.000     0.000   0.0% |
  Calculate atomic Hamiltonians:     0.047     0.047   0.0% |
  Communicate:                       0.763     0.763   0.0% |
  Poisson:                           0.043     0.043   0.0% |
  XC 3D grid:                       24.526    24.526   1.2% |
 Orthonormalize:                     0.203     0.004   0.0% |
  calc_s_matrix:                     0.014     0.014   0.0% |
  inverse-cholesky:                  0.073     0.073   0.0% |
  projections:                       0.097     0.097   0.0% |
  rotate_psi_s:                      0.014     0.014   0.0% |
Set symmetry:                        0.000     0.000   0.0% |
Other:                            1316.041  1316.041  63.8% |-------------------------|
-----------------------------------------------------------
Total:                                      2063.828 100.0%

Memory usage: 310.69 MiB
Date: Fri Apr 18 18:59:39 2025
