
  ___ ___ ___ _ _ _  
 |   |   |_  | | | | 
 | | | | | . | | | | 
 |__ |  _|___|_____|  25.1.0
 |___|_|             

User:   georgios-vourvachakis@georgios-vourvachakis-82K2
Date:   Sat Apr 12 21:05:43 2025
Arch:   x86_64
Pid:    332636
CWD:    /home/georgios-vourvachakis/Desktop/DFT_codes
Python: 3.12.3
gpaw:   /home/georgios-vourvachakis/Desktop/DFT_codes/.venv/lib/python3.12/site-packages/gpaw
_gpaw:  /home/georgios-vourvachakis/Desktop/DFT_codes/.venv/lib/python3.12/site-packages/
        _gpaw.cpython-312-x86_64-linux-gnu.so
ase:    /home/georgios-vourvachakis/Desktop/DFT_codes/.venv/lib/python3.12/site-packages/ase (version 3.24.0)
numpy:  /home/georgios-vourvachakis/Desktop/DFT_codes/.venv/lib/python3.12/site-packages/numpy (version 2.2.3)
scipy:  /home/georgios-vourvachakis/Desktop/DFT_codes/.venv/lib/python3.12/site-packages/scipy (version 1.15.1)
libxc:  5.2.3
units:  Angstrom and eV
cores: 8
OpenMP: False
OMP_NUM_THREADS: 1

Input parameters:
  kpts: {gamma: True,
         size: (12, 12, 1)}
  mode: {ecut: 350.0,
         name: pw}
  occupations: {fixmagmom: False,
                name: fermi-dirac,
                width: 0.01}
  spinpol: True
  symmetry: off
  xc: PBE

System changes: positions, numbers, cell, pbc, initial_charges, initial_magmoms 

Initialize ...

species:
  W:
    name: Tungsten
    id: 3ed563b7d19992259c4d7db283f2ff78
    Z: 74.0
    valence: 14
    core: 60
    charge: 0.0
    file: /home/georgios-vourvachakis/Desktop/DFT_codes/gpaw_datasets/gpaw-setups-0.9.20000/W.PBE.gz
    compensation charges: {type: gauss,
                           rc: 0.40,
                           lmax: 2}
    cutoffs: {filter: 2.36,
              core: 3.02}
    projectors:
      #              energy  rcut
      - 5s(2.00)   -78.830   1.344
      - 6s(2.00)    -5.697   1.344
      - 5p(6.00)   -43.233   1.355
      - 6p(0.00)    -1.367   1.355
      - 5d(4.00)    -4.494   1.228
      -  d          22.717   1.228
  
    # Using partial waves for W as LCAO basis

  S:
    name: Sulfur
    id: ca434db9faa07220b7a1d8cb6886b7a9
    Z: 16.0
    valence: 6
    core: 10
    charge: 0.0
    file: /home/georgios-vourvachakis/Desktop/DFT_codes/gpaw_datasets/gpaw-setups-0.9.20000/S.PBE.gz
    compensation charges: {type: gauss,
                           rc: 0.24,
                           lmax: 2}
    cutoffs: {filter: 1.77,
              core: 1.66}
    projectors:
      #              energy  rcut
      - 3s(2.00)   -17.254   0.974
      - 3p(4.00)    -7.008   0.979
      -  s           9.957   0.974
      -  p          20.203   0.979
      -  d           0.000   0.900
  
    # Using partial waves for S as LCAO basis

Reference energy: -460486.911450  # eV

Spin-polarized calculation.
Magnetic moment: 0.000000

Convergence criteria:
 Maximum [total energy] change in last 3 cyles: 0.0005 eV / valence electron
 Maximum integral of absolute [dens]ity change: 0.0001 electrons / valence electron
 Maximum integral of absolute [eigenst]ate change: 4e-08 eV^2 / valence electron
 Maximum number of scf [iter]ations: 333
 (Square brackets indicate name in SCF output, whereas a 'c' in
 the SCF output indicates the quantity has converged.)

Symmetries present (total): 1

  ( 1  0  0)
  ( 0  1  0)
  ( 0  0  1)

144 k-points: 12 x 12 x 1 Monkhorst-Pack grid + [1/24,1/24,0.000000]
144 k-points in the irreducible part of the Brillouin zone
       k-points in crystal coordinates                weights
   0:    -0.41666667   -0.41666667    0.00000000          1/144
   1:    -0.41666667   -0.33333333    0.00000000          1/144
   2:    -0.41666667   -0.25000000    0.00000000          1/144
   3:    -0.41666667   -0.16666667    0.00000000          1/144
   4:    -0.41666667   -0.08333333    0.00000000          1/144
   5:    -0.41666667   -0.00000000    0.00000000          1/144
   6:    -0.41666667    0.08333333    0.00000000          1/144
   7:    -0.41666667    0.16666667    0.00000000          1/144
   8:    -0.41666667    0.25000000    0.00000000          1/144
   9:    -0.41666667    0.33333333    0.00000000          1/144
          ...
 143:     0.50000000    0.50000000    0.00000000          1/144

Wave functions: Plane wave expansion
  Cutoff energy: 350.000 eV
  Number of coefficients (min, max): 2538, 2578
  Pulay-stress correction: 0.000000 eV/Ang^3 (de/decut=0.000000)
  Using Numpy's FFT
  ScaLapack parameters: grid=1x1, blocksize=None
  Wavefunction extrapolation:
    Improved wavefunction reuse through dual PAW basis 

Occupation numbers: Fermi-Dirac:
  width: 0.0100  # eV
 

Eigensolver
   Davidson(niter=2) 

Densities:
  Coarse grid: 14*14*90 grid
  Fine grid: 28*28*180 grid
  Total Charge: 0.000000 

Density mixing:
  Method: difference
  Backend: pulay
  Linear mixing parameter: 0.05
  old densities: 5
  Damping of long wavelength oscillations: 50 

Hamiltonian:
  XC and Coulomb potentials evaluated on a 28*28*180 grid
  Using the PBE Exchange-Correlation functional
  External potential:
    NoExternalPotential
 

XC parameters: PBE with 2 nearest neighbor stencil

Memory estimate:
  Process memory now: 220.86 MiB
  Calculator: 44.79 MiB
    Density: 5.00 MiB
      Arrays: 2.36 MiB
      Localized functions: 1.70 MiB
      Mixer: 0.94 MiB
    Hamiltonian: 1.79 MiB
      Arrays: 1.75 MiB
      XC: 0.00 MiB
      Poisson: 0.00 MiB
      vbar: 0.04 MiB
    Wavefunctions: 38.00 MiB
      Arrays psit_nG: 28.32 MiB
      Eigensolver: 0.55 MiB
      Projections: 0.48 MiB
      Projectors: 7.08 MiB
      PW-descriptor: 1.56 MiB

Total number of cores used: 8
Parallelization over k-points: 4
Domain decomposition: 1 x 1 x 2

Number of atoms: 3
Number of atomic orbitals: 21
Number of bands in calculation: 20
Number of valence electrons: 26
Bands to converge: occupied

... initialized

Initializing position-dependent things.

Density initialized from atomic densities
Creating initial wave functions:
  20 bands from LCAO basis set

                     
                     
                     
                     
            S        
                     
       W             
                     
            S        
                     
                     
                     
                     

Positions:
   0 W     -0.000000    0.000000    9.999997    ( 0.0000,  0.0000,  0.0000)
   1 S      1.574999    0.909327   11.584910    ( 0.0000,  0.0000,  0.0000)
   2 S      1.574999    0.909327    8.415081    ( 0.0000,  0.0000,  0.0000)

Unit cell:
           periodic     x           y           z      points  spacing
  1. axis:    yes    3.150000    0.000000    0.000000    14     0.1949
  2. axis:    yes   -1.575000    2.727980    0.000000    14     0.1949
  3. axis:    no     0.000000   -0.000000   20.000000    90     0.2222

  Lengths:   3.150000   3.150000  20.000000
  Angles:   90.000000  90.000000 120.000000

Effective grid spacing dv^(1/3) = 0.2136

     iter     time        total  log10-change:  magmom
                         energy   eigst   dens
iter:   1 21:06:32   -22.477110                   +0.0000
iter:   2 21:07:03   -22.481614   -0.99  -1.22    +0.0000
iter:   3 21:07:34   -22.244643   -1.64  -1.24    +0.0000
iter:   4 21:08:04   -22.198906   -1.69  -1.40    -0.0000
iter:   5 21:08:35   -22.223432   -1.90  -1.63    -0.0000
iter:   6 21:09:07   -22.292576   -1.94  -1.83    -0.0000
iter:   7 21:09:38   -22.180352   -2.03  -1.70    +0.0000
iter:   8 21:10:09   -22.180623   -3.11  -2.73    +0.0000
iter:   9 21:10:40   -22.180464c  -4.12  -2.78    +0.0000
iter:  10 21:11:12   -22.180942c  -4.07  -2.84    +0.0000
iter:  11 21:11:43   -22.180371c  -4.26  -2.76    +0.0000
iter:  12 21:12:13   -22.180366c  -4.94  -3.41    +0.0000
iter:  13 21:12:45   -22.180355c  -5.21  -3.49    +0.0000
iter:  14 21:13:17   -22.180354c  -5.54  -3.67    +0.0000
iter:  15 21:13:47   -22.180353c  -5.96  -3.76    +0.0000
iter:  16 21:14:18   -22.180353c  -6.22  -3.80    +0.0000
iter:  17 21:14:50   -22.180354c  -6.49  -3.87    +0.0000
iter:  18 21:15:22   -22.180353c  -6.68  -3.90    +0.0000
iter:  19 21:15:53   -22.180352c  -6.77  -4.04c   +0.0000
iter:  20 21:16:25   -22.180352c  -7.20  -4.41c   +0.0000
iter:  21 21:16:57   -22.180352c  -7.52c -4.47c   +0.0000

Converged after 21 iterations.

Dipole moment: (3.469476, -2.003108, -0.000000) |e|*Ang

Total magnetic moment: (0.000000, 0.000000, 0.000000)
Local magnetic moments:
   0 W  ( 0.000000,  0.000000, -0.000000)
   1 S  ( 0.000000,  0.000000,  0.000000)
   2 S  ( 0.000000,  0.000000,  0.000000)

Energy contributions relative to reference atoms: (reference = -460486.911450)

Kinetic:        +17.202028
Potential:      -19.148078
External:        +0.000000
XC:             -20.323984
Entropy (-ST):   -0.000000
Local:           +0.089682
SIC:             +0.000000
--------------------------
Free energy:    -22.180352
Extrapolated:   -22.180352

Spin contamination: 0.000000 electrons
Showing only first 2 kpts
                      Up                     Down
 Kpt  Band  Eigenvalues  Occupancy  Eigenvalues  Occupancy
  0    11     -3.60761    1.00000     -3.60761    1.00000
  0    12     -1.80633    1.00000     -1.80633    1.00000
  0    13      1.28136    0.00000      1.28136    0.00000
  0    14      2.28134    0.00000      2.28134    0.00000

  1    11     -3.67428    1.00000     -3.67428    1.00000
  1    12     -1.62646    1.00000     -1.62646    1.00000
  1    13      0.92262    0.00000      0.92262    0.00000
  1    14      1.99414    0.00000      1.99414    0.00000


Fermi level: 0.33406

Gap: 1.958 eV
Transition (v -> c):
  (s=1, k=117, n=12, [0.33, 0.33, 0.00]) -> (s=1, k=111, n=13, [0.33, -0.17, 0.00])
Direct/indirect transitions are different
Direct gap: 1.974 eV
Transition at: (s=1, k=117, n=12, [0.33, 0.33, 0.00])
Writing to ws2_1H_gs.gpw (mode='')

Timing:                              incl.     excl.
-----------------------------------------------------------
Hamiltonian:                         1.344     0.001   0.0% |
 Atomic:                             0.245     0.245   0.0% |
  XC Correction:                     0.000     0.000   0.0% |
 Calculate atomic Hamiltonians:      0.028     0.028   0.0% |
 Communicate:                        0.000     0.000   0.0% |
 Initialize Hamiltonian:             0.000     0.000   0.0% |
 Poisson:                            0.000     0.000   0.0% |
 XC 3D grid:                         1.070     1.070   0.1% |
LCAO initialization:                18.212     0.056   0.0% |
 LCAO eigensolver:                  15.122     0.003   0.0% |
  Calculate projections:             0.002     0.002   0.0% |
  DenseAtomicCorrection:             0.032     0.032   0.0% |
  Distribute overlap matrix:         2.102     2.102   0.2% |
  Orbital Layouts:                   4.903     4.903   0.6% |
  Potential matrix:                  0.126     0.126   0.0% |
  Sum over cells:                    7.954     7.954   0.9% |
 LCAO to grid:                       2.957     2.957   0.3% |
 Set positions (LCAO WFS):           0.077     0.013   0.0% |
  Basic WFS set positions:           0.000     0.000   0.0% |
  Basis functions set positions:     0.000     0.000   0.0% |
  P tci:                             0.032     0.032   0.0% |
  ST tci:                            0.029     0.029   0.0% |
  mktci:                             0.004     0.004   0.0% |
PWDescriptor:                        0.021     0.021   0.0% |
SCF-cycle:                         653.795    21.773   2.5% ||
 Davidson:                         600.454    18.440   2.1% ||
  Apply H:                          49.927    49.458   5.6% |-|
   HMM T:                            0.469     0.469   0.1% |
  Subspace diag:                    78.304     0.178   0.0% |
   calc_h_matrix:                   50.565     0.714   0.1% |
    Apply H:                        49.851    49.216   5.6% |-|
     HMM T:                          0.635     0.635   0.1% |
   diagonalize:                     26.633    26.633   3.0% ||
   rotate_psi:                       0.928     0.928   0.1% |
  calc. matrices:                   85.919     8.468   1.0% |
   Apply H:                         77.452    76.680   8.7% |--|
    HMM T:                           0.771     0.771   0.1% |
  diagonalize:                     318.504   318.504  36.2% |-------------|
  rotate_psi:                       49.360    49.360   5.6% |-|
 Density:                            7.308     0.000   0.0% |
  Atomic density matrices:           0.048     0.048   0.0% |
  Mix:                               0.642     0.642   0.1% |
  Multipole moments:                 0.002     0.002   0.0% |
  Pseudo density:                    6.616     6.616   0.8% |
   Symmetrize density:               0.001     0.001   0.0% |
 Hamiltonian:                       24.078     0.060   0.0% |
  Atomic:                            2.686     2.686   0.3% |
   XC Correction:                    0.000     0.000   0.0% |
  Calculate atomic Hamiltonians:     0.101     0.101   0.0% |
  Communicate:                       0.030     0.030   0.0% |
  Poisson:                           0.068     0.068   0.0% |
  XC 3D grid:                       21.132    21.132   2.4% ||
 Orthonormalize:                     0.183     0.004   0.0% |
  calc_s_matrix:                     0.014     0.014   0.0% |
  inverse-cholesky:                  0.008     0.008   0.0% |
  projections:                       0.134     0.134   0.0% |
  rotate_psi_s:                      0.022     0.022   0.0% |
Set symmetry:                        0.000     0.000   0.0% |
Other:                             207.179   207.179  23.5% |--------|
-----------------------------------------------------------
Total:                                       880.551 100.0%

Memory usage: 297.79 MiB
Date: Sat Apr 12 21:20:24 2025
