
  ___ ___ ___ _ _ _  
 |   |   |_  | | | | 
 | | | | | . | | | | 
 |__ |  _|___|_____|  25.1.0
 |___|_|             

User:   georgios-vourvachakis@georgios-vourvachakis-82K2
Date:   Fri Apr 18 15:44:47 2025
Arch:   x86_64
Pid:    331859
CWD:    /home/georgios-vourvachakis/Desktop/DFT_codes
Python: 3.12.3
gpaw:   /home/georgios-vourvachakis/Desktop/DFT_codes/.venv/lib/python3.12/site-packages/gpaw
_gpaw:  /home/georgios-vourvachakis/Desktop/DFT_codes/.venv/lib/python3.12/site-packages/
        _gpaw.cpython-312-x86_64-linux-gnu.so
ase:    /home/georgios-vourvachakis/Desktop/DFT_codes/.venv/lib/python3.12/site-packages/ase (version 3.24.0)
numpy:  /home/georgios-vourvachakis/Desktop/DFT_codes/.venv/lib/python3.12/site-packages/numpy (version 2.2.3)
scipy:  /home/georgios-vourvachakis/Desktop/DFT_codes/.venv/lib/python3.12/site-packages/scipy (version 1.15.1)
libxc:  5.2.3
units:  Angstrom and eV
cores: 8
OpenMP: False
OMP_NUM_THREADS: 1

Input parameters:
  kpts: {gamma: True,
         size: (12, 12, 1)}
  mode: {ecut: 350.0,
         name: pw}
  nbands: 150%
  occupations: {fixmagmom: False,
                name: fermi-dirac,
                width: 0.01}
  spinpol: True
  symmetry: off
  xc: PBE

System changes: positions, numbers, cell, pbc, initial_charges, initial_magmoms 

Initialize ...

species:
  W:
    name: Tungsten
    id: 3ed563b7d19992259c4d7db283f2ff78
    Z: 74.0
    valence: 14
    core: 60
    charge: 0.0
    file: /home/georgios-vourvachakis/Desktop/DFT_codes/gpaw_datasets/gpaw-setups-0.9.20000/W.PBE.gz
    compensation charges: {type: gauss,
                           rc: 0.40,
                           lmax: 2}
    cutoffs: {filter: 2.36,
              core: 3.02}
    projectors:
      #              energy  rcut
      - 5s(2.00)   -78.830   1.344
      - 6s(2.00)    -5.697   1.344
      - 5p(6.00)   -43.233   1.355
      - 6p(0.00)    -1.367   1.355
      - 5d(4.00)    -4.494   1.228
      -  d          22.717   1.228
  
    # Using partial waves for W as LCAO basis

  Te:
    name: Tellurium
    id: e44b9ef4772d7e5a1c6a47e6d6496588
    Z: 52.0
    valence: 6
    core: 46
    charge: 0.0
    file: /home/georgios-vourvachakis/Desktop/DFT_codes/gpaw_datasets/gpaw-setups-0.9.20000/Te.PBE.gz
    compensation charges: {type: gauss,
                           rc: 0.36,
                           lmax: 2}
    cutoffs: {filter: 2.09,
              core: 3.17}
    projectors:
      #              energy  rcut
      - 5s(2.00)   -15.089   1.180
      - 5p(4.00)    -5.955   1.196
      -  s          12.123   1.180
      -  p          21.256   1.196
      -  d           0.000   1.238
  
    # Using partial waves for Te as LCAO basis

Reference energy: -808353.038523  # eV

Spin-polarized calculation.
Magnetic moment: 0.000000

Convergence criteria:
 Maximum [total energy] change in last 3 cyles: 0.0005 eV / valence electron
 Maximum integral of absolute [dens]ity change: 0.0001 electrons / valence electron
 Maximum integral of absolute [eigenst]ate change: 4e-08 eV^2 / valence electron
 Maximum number of scf [iter]ations: 333
 (Square brackets indicate name in SCF output, whereas a 'c' in
 the SCF output indicates the quantity has converged.)

Symmetries present (total): 1

  ( 1  0  0)
  ( 0  1  0)
  ( 0  0  1)

144 k-points: 12 x 12 x 1 Monkhorst-Pack grid + [1/24,1/24,0.000000]
144 k-points in the irreducible part of the Brillouin zone
       k-points in crystal coordinates                weights
   0:    -0.41666667   -0.41666667    0.00000000          1/144
   1:    -0.41666667   -0.33333333    0.00000000          1/144
   2:    -0.41666667   -0.25000000    0.00000000          1/144
   3:    -0.41666667   -0.16666667    0.00000000          1/144
   4:    -0.41666667   -0.08333333    0.00000000          1/144
   5:    -0.41666667   -0.00000000    0.00000000          1/144
   6:    -0.41666667    0.08333333    0.00000000          1/144
   7:    -0.41666667    0.16666667    0.00000000          1/144
   8:    -0.41666667    0.25000000    0.00000000          1/144
   9:    -0.41666667    0.33333333    0.00000000          1/144
          ...
 143:     0.50000000    0.50000000    0.00000000          1/144

Wave functions: Plane wave expansion
  Cutoff energy: 350.000 eV
  Number of coefficients (min, max): 3220, 3313
  Pulay-stress correction: 0.000000 eV/Ang^3 (de/decut=0.000000)
  Using Numpy's FFT
  ScaLapack parameters: grid=1x1, blocksize=None
  Wavefunction extrapolation:
    Improved wavefunction reuse through dual PAW basis 

Occupation numbers: Fermi-Dirac:
  width: 0.0100  # eV
 

Eigensolver
   Davidson(niter=2) 

Densities:
  Coarse grid: 16*16*90 grid
  Fine grid: 32*32*180 grid
  Total Charge: 0.000000 

Density mixing:
  Method: difference
  Backend: pulay
  Linear mixing parameter: 0.05
  old densities: 5
  Damping of long wavelength oscillations: 50 

Hamiltonian:
  XC and Coulomb potentials evaluated on a 32*32*180 grid
  Using the PBE Exchange-Correlation functional
  External potential:
    NoExternalPotential
 

XC parameters: PBE with 2 nearest neighbor stencil

Memory estimate:
  Process memory now: 156.55 MiB
  Calculator: 57.51 MiB
    Density: 6.47 MiB
      Arrays: 3.08 MiB
      Localized functions: 2.16 MiB
      Mixer: 1.23 MiB
    Hamiltonian: 2.34 MiB
      Arrays: 2.29 MiB
      XC: 0.00 MiB
      Poisson: 0.00 MiB
      vbar: 0.05 MiB
    Wavefunctions: 48.70 MiB
      Arrays psit_nG: 36.41 MiB
      Eigensolver: 0.69 MiB
      Projections: 0.48 MiB
      Projectors: 9.10 MiB
      PW-descriptor: 2.02 MiB

Total number of cores used: 8
Parallelization over k-points: 4
Domain decomposition: 1 x 1 x 2

Number of atoms: 3
Number of atomic orbitals: 21
Number of bands in calculation: 20
Number of valence electrons: 26
Bands to converge: occupied

... initialized

Initializing position-dependent things.

Density initialized from atomic densities
Creating initial wave functions:
  20 bands from LCAO basis set

                     
                     
                     
                     
            Te       
                     
       W             
                     
            Te       
                     
                     
                     
                     

Positions:
   0 W      0.000000   -0.000004    9.999996    ( 0.0000,  0.0000,  0.0000)
   1 Te     1.775000    1.024793   11.810355    ( 0.0000,  0.0000,  0.0000)
   2 Te     1.775000    1.024793    8.189645    ( 0.0000,  0.0000,  0.0000)

Unit cell:
           periodic     x           y           z      points  spacing
  1. axis:    yes    3.550000    0.000000    0.000000    16     0.1921
  2. axis:    yes   -1.775000    3.074390    0.000000    16     0.1921
  3. axis:    no     0.000000   -0.000000   20.000000    90     0.2222

  Lengths:   3.550000   3.550000  20.000000
  Angles:   90.000000  90.000000 120.000000

Effective grid spacing dv^(1/3) = 0.2116

     iter     time        total  log10-change:  magmom
                         energy   eigst   dens
iter:   1 15:45:38   -18.401445                   +0.0000
iter:   2 15:46:13   -18.340505   -1.27  -1.17    +0.0000
iter:   3 15:46:48   -18.215989   -1.76  -1.21    +0.0000
iter:   4 15:47:23   -18.163423   -2.19  -1.36    +0.0000
iter:   5 15:47:59   -18.218701   -1.85  -1.53    +0.0000
iter:   6 15:48:35   -18.159503   -2.41  -1.78    +0.0000
iter:   7 15:49:10   -18.155056   -3.10  -2.20    +0.0000
iter:   8 15:49:45   -18.157217c  -3.53  -2.50    +0.0000
iter:   9 15:50:21   -18.155020c  -3.68  -2.42    +0.0000
iter:  10 15:50:56   -18.155016c  -4.41  -3.27    +0.0000
iter:  11 15:51:31   -18.155027c  -4.84  -3.40    +0.0000
iter:  12 15:52:07   -18.155032c  -5.21  -3.39    +0.0000
iter:  13 15:52:42   -18.154998c  -5.16  -3.24    +0.0000
iter:  14 15:53:18   -18.154997c  -5.77  -3.84    +0.0000
iter:  15 15:53:54   -18.154997c  -6.07  -4.11c   -0.0000
iter:  16 15:54:30   -18.154996c  -6.35  -4.15c   -0.0000
iter:  17 15:55:05   -18.154996c  -6.66  -4.22c   -0.0000
iter:  18 15:55:45   -18.154996c  -6.93  -4.32c   -0.0000
iter:  19 15:56:21   -18.154996c  -7.15  -4.36c   -0.0000
iter:  20 15:56:57   -18.154996c  -7.36  -4.43c   -0.0000
iter:  21 15:57:32   -18.154996c  -7.45c -4.46c   -0.0000

Converged after 21 iterations.

Dipole moment: (5.733019, -3.309916, 0.000001) |e|*Ang

Total magnetic moment: (0.000000, 0.000000, -0.000000)
Local magnetic moments:
   0 W  ( 0.000000,  0.000000, -0.000000)
   1 Te ( 0.000000,  0.000000,  0.000000)
   2 Te ( 0.000000,  0.000000, -0.000000)

Energy contributions relative to reference atoms: (reference = -808353.038523)

Kinetic:        +20.701572
Potential:      -20.886375
External:        +0.000000
XC:             -18.065186
Entropy (-ST):   -0.000000
Local:           +0.094993
SIC:             +0.000000
--------------------------
Free energy:    -18.154996
Extrapolated:   -18.154996

Spin contamination: 0.000000 electrons
Showing only first 2 kpts
                      Up                     Down
 Kpt  Band  Eigenvalues  Occupancy  Eigenvalues  Occupancy
  0    11     -1.97897    1.00000     -1.97897    1.00000
  0    12     -0.51411    1.00000     -0.51411    1.00000
  0    13      1.37855    0.00000      1.37855    0.00000
  0    14      2.08786    0.00000      2.08786    0.00000

  1    11     -1.99921    1.00000     -1.99921    1.00000
  1    12     -0.39198    1.00000     -0.39198    1.00000
  1    13      1.14353    0.00000      1.14353    0.00000
  1    14      2.02587    0.00000      2.02587    0.00000


Fermi level: 0.65495

Gap: 1.074 eV
Transition (v -> c):
  (s=0, k=117, n=12, [0.33, 0.33, 0.00]) -> (s=1, k=13, n=13, [-0.33, -0.33, 0.00])
Direct/indirect transitions are different
Direct gap: 1.074 eV
Transition at: (s=0->1, k=117, n=12, [0.33, 0.33, 0.00])
